Property Melting Point,Property Density,Property Boiling Point,Property Solubility,Property Molar Mass,Name,formula
10.9,,177.2,,165.87,Selenium oxydichloride,SeOCl$_{2}$
,,,,,Lactacystin,C$_{15}$H$_{24}$N$_{2}$O$_{7}$S
,,,,433.38,Callistephin,C$_{21}$H$_{21}$O$^{+}_{10}$
2810,5.77,,insoluble,62.953,Vanadium carbide,VC
790,6.445,,,246.31,Tin telluride,SnTe
,,,,,Carvedilol,C$_{24}$H$_{26}$N$_{2}$O$_{4}$
,,,,,Sufentanil,C$_{22}$H$_{30}$N$_{2}$O$_{2}$S
,,,reacts violently,41.085899,Calcium monohydride,CaH
207,1.28,,,,Chlorogenic acid,C$_{16}$H$_{18}$O$_{9}$
,,,,,Gelsemine,C$_{20}$H$_{22}$N$_{2}$O$_{2}$
100,,,,,Ammonium iron(II) sulfate,(NH$_{4}$)$_{2}$Fe(SO$_{4}$)$_{2}$.6H$_{2}$O
,,,,,Delavirdine,C$_{22}$H$_{28}$N$_{6}$O$_{3}$S
581,,,insoluble,265.99,Platinum(II) chloride,PtCl$_{2}$
,,,,,Guanoxan,C$_{10}$H$_{13}$N$_{3}$O$_{2}$
,,,,222.322,Potassium adipate,K$_{2}$C$_{6}$H$_{8}$O$_{4}$
,,,,,Hydroxide,OH$^{-}$
,,,,,GSK-189 254,
25-26,1.08,121,Insoluble,,Diphenyl ether,C$_{12}$H$_{10}$O
,,,,,Domperidone,C$_{22}$H$_{24}$ClN$_{5}$O$_{2}$
decomposes @ 100,,,,,Poly(hydridocarbyne),(HC)N
128-132,,,,,Totarol,C$_{20}$H$_{30}$O
,,,0.00%,,Captafol,C$_{10}$H$_{9}$Cl$_{4}$NO$_{2}$S
-223.8,1.9,-144.75,,53.9962,Oxygen difluoride,OF$_{2}$
,,,,,Celecoxib,C$_{17}$H$_{14}$F$_{3}$N$_{3}$O$_{2}$S
97-98,,,,179.21572,Fusaric acid,C$_{10}$H$_{13}$NO$_{2}$
,,,,,Grape reaction product,C$_{23}$H$_{27}$N$_{3}$O$_{15}$S
,,,,302.451,Eicosapentaenoic acid,C$_{20}$H$_{30}$O$_{2}$
>100,1.126,,,441.99,Rhodium(II) acetate,C$_{8}$H$_{12}$O$_{8}$Rh$_{2}$
,,,,,Apronal,C$_{9}$H$_{16}$N$_{2}$O$_{2}$
1006,5.07,1086,reacts,275.83,Tungsten(VI) oxytetrafluoride,WOF$_{4}$
,,,insoluble,,Trifluoromethanesulfonyl azide,CF$_{3}$N$_{3}$O$_{2}$S
,,,,,Tetrahydrocannabinolic acid,
,,,,,Iron oxychloride,ClFeO
explodes below 0,,,,118.903,Dichlorine trioxide,Cl$_{2}$O$_{3}$
,,,,,TGN1412,C$_{14}$H$_{13}$N$_{5}$O$_{5}$S$_{2}$
3490,7.82,,,104.917,Niobium carbide,NbC
,,,,,Perfluoromethyldiethylamine,C$_{5}$F$_{13}$N
,,,,195.2,Damascenine,C$_{10}$H$_{13}$NO$_{3}$
230,2.13,,,437.2,Potassium ferrioxalate,K$_{3}$[Fe(C$_{2}$O$_{4}$)$_{3}$](anhydrous)
,,,,,Phenylisobutylamine,C$_{10}$H$_{15}$N
,,,,,Riluzole,C$_{8}$H$_{5}$F$_{3}$N$_{2}$OS
,1.18,35-38,,,Benzisoxazole,C$_{7}$H$_{5}$NO
,,,,,Monatepil,C$_{28}$H$_{30}$FN$_{3}$OS
,,,,,AM-1220,C$_{26}$H$_{26}$N$_{2}$O
,,,,,Morazone,C$_{23}$H$_{27}$N$_{3}$O$_{2}$
,,,,,JWH-184,C$_{25}$H$_{25}$N
276-286,,,,296.155,HMX,C$_{4}$H$_{8}$N$_{8}$O$_{8}$
,,,,,Tiropramide,C$_{28}$H$_{41}$N$_{3}$O$_{3}$
,,,,,Bupranolol,C$_{14}$H$_{22}$ClNO$_{2}$
,,,,,Enviomycin,C$_{25}$H$_{43}$N$_{13}$O$_{10}$
,,,,,Salicylmethylecgonine,C$_{17}$H$_{21}$NO$_{5}$
,,,,,Isoguvacine,C$_{6}$H$_{9}$NO$_{2}$
,5.5-8.7,,Partially soluble,286.29,Uranium trioxide,UO$_{3}$
,,,,270.2369,Morindone,C$_{15}$H$_{10}$O$_{5}$
824,,,,197.32,Gallium(II) telluride,GaTe
,,,,,Macitentan,C$_{19}$H$_{20}$Br$_{2}$N$_{6}$O$_{4}$S
,,,,,Combretastatin A-4 phosphate,
230,4.1,,0.013,92.724,Nickel(II) hydroxide,Ni(OH)$_{2}$
,,,,,Adaprolol,C$_{26}$H$_{39}$NO$_{4}$
,,,,356.495,Lagochilin,C$_{20}$H$_{36}$O$_{5}$
,,,,,PRX-08066,C$_{19}$H$_{17}$ClFN$_{5}$S
,,,,432.982,Diiodotyrosine,C$_{9}$H$_{9}$I$_{2}$NO$_{3}$
,,,,,Metralindole,C$_{15}$H$_{17}$N$_{3}$O
,,,,,Methylmethaqualone,C$_{17}$H$_{16}$N$_{2}$O
888,4.5,,0.00504,157.8743,Manganese(III) oxide,Mn$_{2}$O$_{3}$
,,,,,Levophenacylmorphan,C$_{24}$H$_{27}$NO$_{2}$
,,,,,SKF-81 297,
,,,,,Dimethylamphetamine,C$_{11}$H$_{17}$N
,,,Insoluble in water,,Saccharic acid,C$_{6}$H$_{10}$O$_{8}$
,,,,,Indoramin,C$_{22}$H$_{25}$N$_{3}$O
,,,,,Pederin,C$_{25}$H$_{45}$NO$_{9}$
,,,,154.29,Cycloundecane,C$_{11}$H$_{22}$
,,,,,Ranelic acid,C$_{12}$H$_{10}$N$_{2}$O$_{8}$S
,,,,,Solabegron,C$_{23}$H$_{23}$ClN$_{2}$O$_{3}$
,,,insoluble (decomposes),224.15,Zinc nitride,Zn$_{3}$N$_{2}$
,,,,,Nafarelin,C$_{66}$H$_{83}$N$_{17}$O$_{13}$
600,,,18,189.362,Barium cyanide,Ba(CN)$_{2}$
,,,,,Fialuridine,C$_{9}$H$_{10}$FIN$_{2}$O$_{5}$
,,,,,Flumizole,C$_{18}$H$_{15}$F$_{3}$N$_{2}$O$_{2}$
,,,,,Tocainide,C$_{11}$H$_{16}$N$_{2}$O
96.8,,229.5,decomposes,275.95,Tantalum pentafluoride,TaF$_{5}$
,,,,963.54,Sorbitan tristearate,C$_{60}$H$_{114}$O$_{8}$
,,,,,Troglitazone,C$_{24}$H$_{27}$NO$_{5}$S
,,,,,Nitroscanate,C$_{13}$H$_{8}$N$_{2}$O$_{3}$S
,,,,,Daunorubicin,C$_{27}$H$_{29}$NO$_{10}$
,,,,427.4,Vicianin,C$_{19}$H$_{25}$O$_{10}$
505,3.2,,66.48,336.228,Barium perchlorate,Ba(ClO$_{4}$)$_{2}$
,,,,,Thymopentin,C$_{30}$H$_{49}$N$_{9}$O$_{9}$
,,,1.5,,Lysine,C$_{6}$H$_{14}$N$_{2}$O$_{2}$
1306,,2427,Insoluble,207.36,Samarium(III) fluoride,SmF$_{3}$
,,,,,Sulprostone,C$_{18}$H$_{23}$NO$_{4}$
,,,,118.088,Methylmalonic acid,C$_{4}$H$_{6}$O$_{4}$
199-202,1.2215,245,1070,,Anilinium chloride,C$_{6}$H$_{8}$ClN
,,,,,Thiocyanatoiron,CFeH$_{10}$NO$_{5}$S
-159.5,1.799,-3.7,,165.36,Bromochlorodifluoromethane,CBrClF$_{2}$
195-200,1.86,278,"Insoluble in water, soluble in most organic solvents",231.26,Ruthenocene,C$_{10}$H$_{10}$Ru
,,,,,L-741 626,
6.47,,80.74,Immiscible,84.16,Cyclohexane,C$_{6}$H$_{12}$
,,,,,Melarsoprol,C$_{12}$H$_{15}$AsN$_{6}$OS$_{2}$
,,,,,Piminodine,C$_{23}$H$_{30}$N$_{2}$O$_{2}$
,,,,,Bactoprenol,C$_{55}$H$_{92}$O
,,,,,Lubeluzole,C$_{22}$H$_{25}$F$_{2}$N$_{3}$O$_{2}$S
,,,,,Anethole trithione,
,,,,,Tulathromycin,C$_{41}$H$_{79}$N$_{3}$O$_{12}$
,,,,,Clopidol,C$_{7}$H$_{7}$Cl$_{2}$NO
42,,96,,,Norbornene,C$_{7}$H$_{10}$
,1.984,,,226.268,Potassium tartrate,C$_{4}$H$_{4}$K$_{2}$O$_{6}$
,,,,,Tilorone,C$_{25}$H$_{34}$N$_{2}$O$_{3}$
634.5,1.52,1625,41,65.12,Potassium cyanide,KCN
41.9,1.586,,11.9,79.056,Ammonium bicarbonate,NH$_{5}$CO$_{3}$
,,,,,GBLD-345,C$_{21}$H$_{21}$N$_{5}$O$_{2}$
,,,,,Desformylflustrabromine,C$_{16}$H$_{21}$BrN$_{2}$
-16,1.32,96,miscible,,Thioglycolic acid,C$_{2}$H$_{4}$O$_{2}$S
,,,,,Semagacestat,C$_{19}$H$_{27}$N$_{3}$O$_{4}$
,,,,,Tris(triphenylphosphine)rhodium carbonyl hydride,C$_{55}$H$_{46}$OP$_{3}$Rh
,,,,,Afimoxifene,C$_{26}$H$_{29}$NO$_{2}$
,,,,486.64,Kendomycin,C$_{29}$H$_{42}$O$_{6}$
,,,,864.75,Cinnamtannin B1,C$_{45}$H$_{36}$O$_{18}$
,,,,,Idalopirdine,C$_{20}$H$_{19}$F$_{5}$N$_{2}$O
,,,,226.226,Genipin,C$_{11}$H$_{14}$O$_{5}$
98,,300,,,Deltamethrin,C$_{22}$H$_{19}$Br$_{2}$NO$_{3}$
,,,,,Amitriptylinoxide,C$_{20}$H$_{23}$NO
,,,,,Topotecan,C23H23N3O5}$$\cdot$HCl
316,1.799,,Practically insoluble in water,302.236,Quercetin,C$_{15}$H$_{10}$O$_{7}$
,,,,,Tybamate,C$_{13}$H$_{26}$N$_{2}$O$_{4}$
,,,,,Cyclandelate,C$_{17}$H$_{24}$O$_{3}$
859,2.221,1377,monohydrate:   34.9,109.94,Lithium sulfate,NaVO$_{3}$
-148,,35,0.7% (20$^{\circ}$C),,Ethanethiol,C$_{2}$H$_{6}$S
122,,283.5,0.901,,Dibenzo-1 4-dioxin,C$_{12}$H$_{8}$O$_{2}$
-103,,-48.5,,120.02,Pentafluoroethane,C$_{2}$HF$_{5}$
64,,372,1.51,,Arachidyl alcohol,C$_{20}$H$_{42}$O
,,,,578.52,Kaempferitrin,C$_{27}$H$_{30}$O$_{14}$
,,,,197.19,D-DOPA,C$_{9}$H$_{11}$NO$_{4}$
,,,,,Losartan,C$_{22}$H$_{23}$ClN$_{6}$O
,,,,352.46508,Lipoxin,C$_{20}$H$_{32}$O$_{5}$
,,,,,Elopiprazole,C$_{23}$H$_{22}$FN$_{3}$O
200,,,,,HBTU,C$_{11}$H$_{16}$N$_{5}$OPF$_{6}$
,,,,,Aprotinin,C$_{284}$H$_{432}$N$_{84}$O$_{79}$S$_{7}$
,,,,292.37,Trichodermin,C$_{17}$H$_{24}$O$_{4}$
64-66,,282-284,42.9,,M-Phenylenediamine,C$_{6}$H$_{8}$N$_{2}$
,,,,,ACPD,C$_{7}$H$_{11}$NO$_{4}$
,,,,,Hexaoxotricyclobutabenzene,C$_{12}$O$_{6}$
36,1.972,,90,141.9254,Sodium permanganate,NaMnO$_{4}$
,,,,,Zosuquidar,C$_{32}$H$_{31}$F$_{2}$N$_{3}$O$_{2}$
,,,,,Bamifylline,C$_{20}$H$_{27}$N$_{5}$O$_{3}$
,,,low,,Isobutylidenediurea,C$_{6}$H$_{14}$N$_{4}$O$_{2}$
83-86,,496.4,,384.64,Cholecalciferol,C$_{27}$H$_{44}$O
,,,,,Dimetotiazine,C$_{19}$H$_{25}$N$_{3}$O$_{2}$S$_{2}$
,,,,,O-2050,C$_{23}$H$_{31}$NO$_{4}$S
,,,,1004.94,Palmitoyl-CoA,C$_{37}$H$_{66}$N$_{7}$O$_{17}$P$_{3}$S
160,2.08,,,,Sodium bifluoride,NaHF$_{2}$
,3.22,,52.5,285.35,Zirconium(IV) sulfate,"Zr(SO$_{4}$)$_{2}$(H2O)x(x0,4,5,7)"
,,,,,Divaplon,C$_{17}$H$_{17}$N$_{3}$O$_{2}$
225,0.7,,0.5,219.95,Sodium dichloroisocyanurate,C$_{3}$Cl$_{2}$N$_{3}$NaO$_{3}$
,,,,,Lenperone,C$_{22}$H$_{23}$F$_{2}$NO$_{2}$
130,,140,,199.989,Bronopol,C$_{3}$H$_{6}$BrNO$_{4}$
,,,,,O-2372,C$_{28}$H$_{41}$NO$_{4}$
,,,,462.4,Tectoridin,C$_{22}$H$_{22}$O$_{11}$
,,,,400.64,Calcifediol,C$_{27}$H$_{44}$O$_{2}$
,,,,317.27,Pulchellidin,C$_{16}$H$_{13}$O$_{7}$
,,,,,Veralipride,C$_{17}$H$_{25}$N$_{3}$O$_{5}$S
,,,,,Gramicidin,C$_{99}$H$_{140}$N$_{20}$O$_{17}$
,,,,,Tiazesim,C$_{19}$H$_{22}$N$_{2}$OS
,,,,,Mizoribine,C$_{9}$H$_{13}$N$_{3}$O$_{6}$
,,,,223.314,Iris (psychedelic),C$_{13}$H$_{21}$NO$_{2}$
120,,,,,Simple metoprolol,C$_{15}$H$_{25}$NO$_{3}$
114-116,,,500,221.04,Dicamba,C$_{8}$H$_{6}$Cl$_{2}$O$_{3}$
,,,,377.43,SB 203580,C$_{21}$H$_{16}$FN$_{3}$OS
,,,,,Curium hydroxide,H$_{3}$CmO$_{3}$
,,,,,Lobeline,C$_{22}$H$_{27}$NO$_{2}$
,,,,270.28,Imperatorin,C$_{16}$H$_{14}$O$_{4}$
,,,,239.27,Hydroxyacetylaminofluorene,C$_{15}$H$_{13}$NO$_{2}$
,,,,,Methoxphenidine,C$_{20}$H$_{25}$NO
,,,,354.35,Tricosylic acid,C$_{23}$H$_{46}$O$_{2}$
,,,,227.345,Hasubanan,C$_{16}$H$_{21}$N
209.7,4.35,440,122,,Silver nitrate,AgNO$_{3}$
,,,,,Linsidomine,C$_{6}$H$_{10}$N$_{4}$O$_{2}$
,,,,,Cefotaxime,C$_{16}$H$_{17}$N$_{5}$O$_{7}$S$_{2}$
,,,,,Citalopram,C$_{20}$H$_{21}$FN$_{2}$O
,,,,,Magnesium formate,Mg(HCO$_{2}$)$_{2}$
,,,,,Rufloxacin,C$_{17}$H$_{18}$FN$_{3}$O$_{3}$S
,,,,,Icosane,C$_{20}$H$_{42}$
,,,,,Mebendazole,C$_{16}$H$_{13}$N$_{3}$O$_{3}$
,,,,,Carpindolol,C$_{19}$H$_{28}$N$_{2}$O$_{4}$
,,,,,Lesopitron,C$_{15}$H$_{21}$ClN$_{6}$
,,,,555.62268,Leu-enkephalin,C$_{28}$H$_{37}$N$_{5}$O$_{7}$
,,,,,Sarizotan,C$_{22}$H$_{21}$FN$_{2}$O
,,,,,Leukotriene B4,C$_{20}$H$_{32}$O$_{4}$
430,7.004,720,0.29,239.82,Thallium(I) chloride,TlCl
335,,,70% (20$^{\circ}$C),,Diquat,C$_{12}$H$_{12}$Br$_{2}$N$_{2}$
,,,,,Balanol,C$_{28}$H$_{26}$N$_{2}$O$_{10}$
,,,,,Altropane,C$_{18}$H$_{21}$FINO$_{2}$
,,,,,Aliskiren,C$_{30}$H$_{53}$N$_{3}$O$_{6}$
,,,,,Methasterone,C$_{21}$H$_{34}$O$_{2}$
1.25,,105.8,Reacts,153.33,Phosphoryl chloride,POCl$_{3}$
,,,,230.11,Ribulose 5-phosphate,C$_{5}$H$_{11}$O$_{8}$P
,,,,356.803,Laquinimod,C$_{19}$H$_{17}$ClN$_{2}$O$_{3}$
,,625.8,,,Altizide,C$_{11}$H$_{14}$ClN$_{3}$O$_{4}$S$_{3}$
,,,,,Nitracaine,C$_{16}$H$_{24}$N$_{2}$O$_{4}$
,,,,278.39,Paradol,C$_{17}$H$_{26}$O$_{3}$
,,,,,CGS-21680,C$_{23}$H$_{29}$N$_{7}$O$_{6}$
,,,,,Eupalin,C$_{23}$H$_{24}$O
-3.4,0.97,225.2,,,Trans-3-Methyl-2-hexenoic acid,C$_{7}$H$_{12}$O$_{2}$
,,,,,Idebenone,C$_{19}$H$_{30}$O$_{5}$
,,,,346.37,Dihydrokanakugiol,C$_{19}$H$_{22}$O$_{6}$
251,2.21,,99.3,223.206,Magnesium perchlorate,Mg(ClO$_{4}$)$_{2}$
,,,,,Allithiamine,C$_{15}$H$_{22}$N$_{4}$O$_{2}$S$_{2}$
222,,,,300.39,Adrenosterone,C$_{19}$H$_{24}$O$_{3}$
,,,,,Wikipedia:Most transcluded templates in October 2011,1878Aircontent7556
>600,2.31,,11.9,221.94,Disodium pyrophosphate,Na$_{2}$H$_{2}$P$_{2}$O$_{7}$
,,,,,Terbinafine,C$_{21}$H$_{25}$N
,,,,236.35,DB-2073,C$_{15}$H$_{24}$O$_{2}$
Tetrahydrate: 130-135,,,,,Magnesium diglutamate,C$_{10}$H$_{16}$MgN$_{2}$O$_{8}$
,,,,164.16,Sorbitan,C$_{6}$H$_{12}$O$_{5}$
1353,3.09,,insoluble,254.053,Calcium pyrophosphate,Ca$_{2}$O$_{7}$P$_{2}$
,,,,,Lurasidone,C$_{28}$H$_{36}$N$_{4}$O$_{2}$S
,,,,,Etiracetam,C$_{8}$H$_{14}$N$_{2}$O$_{2}$
,,,,,Curdlan,(C$_{6}$H$_{10}$O$_{5}$)$_{n}$
,,,,,Clofexamide,C$_{14}$H$_{21}$ClN$_{2}$O$_{2}$
,,,,,PEPAP,C$_{21}$H$_{25}$NO$_{2}$
155-157,1.67,,,69.49,Hydroxylammonium chloride,ONH$_{3}$.HCl
,,,,,Benzthiazide,C$_{15}$H$_{14}$ClN$_{3}$O$_{4}$S$_{3}$
,1.49,686.8,,,Oxacillin,C$_{19}$H$_{19}$N$_{3}$O$_{5}$S
,,,,,Acetoxyacetylaminofluorene,C$_{17}$H$_{15}$NO$_{3}$
,,,,,Formocortal,C$_{29}$H$_{38}$ClFO$_{8}$
210-211,,,~15,,Rhodamine B,C$_{28}$H$_{31}$ClN$_{2}$O$_{3}$
,,,,,Metreleptin,C$_{714}$H$_{1167}$N$_{191}$O$_{221}$S$_{6}$
,,,,223.268,MEDA,C$_{12}$H$_{17}$NO$_{3}$
,,,,,Trifluoromethylphenylpiperazine,C$_{11}$H$_{13}$F$_{3}$N$_{2}$
,1.049,559.379,0.0069,360.4871,Protectin D1,C$_{22}$H$_{32}$O$_{4}$
,,,,369.8,CCPA (biochemistry),C$_{15}$H$_{20}$ClN$_{5}$O$_{4}$
155,,,"Soluble in acidic/low pH water, Very soluble in methanol, chloroform, ethyl acetate, benzene, ethyl ether",,Midecamycin,C$_{41}$H$_{67}$NO$_{15}$
,,,,,Aplysamine-2,C$_{23}$H$_{28}$Br$_{3}$N$_{3}$O$_{4}$
,,,,,Etozoline,C$_{13}$H$_{20}$N$_{2}$O$_{3}$S
,1.16,130,0.001% (20$^{\circ}$C),,Fonofos,C$_{10}$H$_{15}$OPS$_{2}$
,,,,,Tenapanor,C$_{50}$H$_{66}$Cl$_{4}$N$_{8}$O$_{10}$S$_{2}$
,,,,,Visnadine,C$_{21}$H$_{24}$O$_{7}$
,,,,,Methapyrilene,C$_{14}$H$_{19}$N$_{3}$S
,,,,,Cetraxate,C$_{17}$H$_{23}$NO$_{4}$
,,65-66,,302.09,Perfluorobutanesulfonyl fluoride,C$_{4}$F$_{10}$O$_{2}$S
179-185,,,,194.18,Pinitol,C$_{7}$H$_{14}$O$_{6}$
,,,,208.25,Oudenone,C$_{12}$H$_{16}$O$_{3}$
32.5,0.98,170,0.02%,132.2,Dicyclopentadiene,C$_{10}$H$_{12}$
,,,,406.49,Flurogestone acetate,C$_{23}$H$_{31}$FO$_{5}$
,,,,,Plicatol C,C$_{15}$H$_{14}$O$_{4}$
142-144,,,,879.86,Erythrosine,C$_{20}$H$_{6}$I$_{4}$Na$_{2}$O$_{5}$
,,,,355.51,Cyanoketone,C$_{23}$H$_{33}$NO$_{2}$
95-97,,,,,Acetaldehyde ammonia trimer,C$_{6}$H$_{15}$N$_{3}$
,,,,,PNU-22394,C$_{13}$H$_{16}$N$_{2}$
,,,Insoluble,,Silicon nitride,Si$_{3}$N$_{4}$
,,,,,N-(2-Hydroxypropyl) methacrylamide,C$_{7}$H$_{13}$NO$_{2}$
,,,,319.43,Homocapsaicin,C$_{19}$H$_{29}$NO$_{3}$
,,,,,JWH-196,C$_{25}$H$_{27}$N
900-1000,,1559,4.8,,Cadmium oxide,CdO
,,,,,Plicamycin,C$_{52}$H$_{76}$O$_{24}$
,,,,,Norverapamil,C$_{26}$H$_{36}$N$_{2}$O$_{4}$
,,,,,Phenampromide,C$_{17}$H$_{26}$N$_{2}$O
,,,,,Jimscaline,C$_{13}$H$_{19}$NO$_{3}$
,,,,,Medifoxamine,C$_{16}$H$_{19}$NO$_{2}$
,,,,,RTI-150,C$_{20}$H$_{27}$NO$_{2}$
-42,1.01-1.21,108,miscible in water,,Aqua regia,HNO$_{3}$+3HCl
,,,,,Phenmetrazine,C$_{11}$H$_{15}$NO
,,,soluble,,Glutamine,C$_{5}$H$_{10}$N$_{2}$O$_{3}$
,,,,326.25,Fertaric acid,C$_{14}$H$_{14}$O$_{9}$
1100,11.66,,insoluble,224.22,Iridium(IV) oxide,IrO$_{2}$
,,,,,Alagebrium,C$_{13}$H$_{14}$ClNOS
,,,,,Azete,C$_{3}$H$_{3}$N
,,,,,GSK1360707F,C$_{14}$H$_{17}$Cl$_{2}$NO
,,,,,Fezolamine,C$_{20}$H$_{23}$N$_{3}$
150,,156,,,Molybdenum hexacarbonyl,C$_{6}$MoO$_{6}$
,,,,428.43,Rosarin,C$_{20}$H$_{28}$O$_{10}$
-121,,59,hydrolysis,,Sulfur dichloride,SCl$_{2}$
,,,,,Dimetindene,C$_{20}$H$_{24}$N$_{2}$
,,,,,Zidovudine,C$_{10}$H$_{13}$N$_{5}$O$_{4}$
,,,,,Methylisopropyllysergamide,C$_{20}$H$_{25}$N$_{3}$O
97.8,3.205,265,reacts,266.69,Aluminium bromide,AlBr$_{3}$
,,,,,Disodium 4 4'-dinitrostilbene-2 2'-disulfonate,C$_{14}$H$_{8}$N$_{2}$Na$_{2}$O$_{10}$S$_{2}$
,,,,,Doxycycline,C$_{22}$H$_{24}$N$_{2}$O$_{8}$
,,,,204.25,Aluminium isopropoxide,C$_{9}$H$_{21}$O$_{3}$Al
,,,,,Ecromeximab,C$_{6466}$H$_{10018}$N$_{1734}$O$_{2026}$S$_{44}$
1340,2.29,1150-1200,Reacts,80.102,Calcium cyanamide,CaCN$_{2}$
302,,,very soluble (>650 g/l),,Choline chloride,C$_{5}$H$_{14}$ClNO
,,,,,Puerarin,C$_{21}$H$_{20}$O$_{9}$
,,,,,Beraprost,C$_{24}$H$_{30}$O$_{5}$
,,,,,Lisofylline,C$_{13}$H$_{20}$N$_{4}$O$_{3}$
,,,,,Olesoxime,C$_{27}$H$_{45}$NO
366-367,,518-520,,278.33,Picene,C$_{22}$H$_{14}$
268-270,,,Slightly soluble,323.82,Pararosaniline,C$_{19}$H$_{18}$ClN$_{3}$
,,,,,Enoxolone,C$_{20}$H$_{20}$FNO$_{3}$S
,,,,311.0812,Copper chromite,Cu$_{2}$Cr$_{2}$O$_{5}$
,,,,,Trandolapril,C$_{24}$H$_{34}$N$_{2}$O$_{5}$
,,,,,Robalzotan,C$_{18}$H$_{23}$FN$_{2}$O$_{2}$
,1.576,,,,Pigment yellow 185,C$_{16}$H$_{11}$N$_{5}$O$_{4}$
,,,,,Aesculetin,C$_{9}$H$_{6}$O$_{4}$
,,,,,Acetazolamide,C$_{4}$H$_{6}$N$_{4}$O$_{3}$S$_{2}$
,,,,,MDA-19,C$_{21}$H$_{23}$N$_{3}$O$_{2}$
-125,,133,,,Acetone azine,C$_{6}$H$_{12}$N$_{2}$
135,1.59,,478.8,,Maleic acid,C$_{4}$H$_{4}$O$_{4}$
,,,,,Silabenzene,C$_{5}$H$_{6}$Si
,,,,,Fenbufen,C$_{16}$H$_{14}$O$_{3}$
,,,,,Amifostine,C$_{5}$H$_{15}$N$_{2}$O$_{3}$PS
,,,,,Sildenafil,C$_{22}$H$_{30}$N$_{6}$O$_{4}$S
152-153,,,,,Volemitol,C$_{7}$H$_{16}$O$_{7}$
,,,,,Nicoracetam,C$_{11}$H$_{12}$N$_{2}$O$_{3}$
184.5,,,,,Imuracetam,C$_{11}$H$_{18}$N$_{4}$O$_{3}$
127,,273,Slightly soluble,,Tert-Butylhydroquinone,C$_{10}$H$_{14}$O$_{2}$
,,,,,Tigecycline,C$_{29}$H$_{39}$N$_{5}$O$_{8}$
,,,,,Tecovirimat,C$_{19}$H$_{15}$F$_{3}$N$_{2}$O$_{3}$
,,,,295.4668,Methade,C$_{21}$H$_{29}$N
,,,,316.48,Bolasterone,C$_{21}$H$_{32}$O$_{2}$
releases chlorine at 130,1.4,,15% in water,,Chloramine-T,C$_{7}$H$_{7}$ClNO$_{2}$S.Na(3H$_{2}$O)
580,8.1,,insoluble,232.66,Mercury sulfide,HgS
115,,,,146.11,Alpha-Ketoglutaric acid,C$_{5}$H$_{6}$O$_{5}$
-87.3,,56,,,Trimethylarsine,C$_{3}$H$_{9}$As
,,,,,Disulfurous acid,H$_{2}$S$_{2}$O$_{5}$
,,,,,LY-379 268,
54,,,,161.98,Hypophosphoric acid,H$_{4}$P$_{2}$O$_{6}$
,,,,,SKF-38 393,
-102.7,0.53,-23.2,,40.0639,Propyne,C$_{3}$H$_{4}$
237,,322,soluble,360.41,Mercury(II) bromide,HgBr$_{2}$
,,,,241.84,Lanthanum manganite,LaMnO$_{3}$
1232,6,1800,Insoluble,143.09,Copper(I) oxide,Cu$_{2}$O
191-191.5,,,0.83,,Tebufenozide,C$_{22}$H$_{28}$N$_{2}$O$_{2}$
360,2.2,,Insoluble.,151.13,Guanine,C$_{5}$H$_{5}$N$_{5}$O
1060,3.31,,14.4,166.62,Sodium germanate,Na$_{2}$GeO$_{3}$
,,,,514.62,ABTS,C$_{18}$H$_{18}$N$_{4}$O$_{6}$S$_{4}$
,,,,,Tafamidis,C$_{14}$H$_{7}$Cl$_{2}$NO$_{3}$
,,,Insoluble in water,265.9755,Bismuth trifluoride,BiF$_{3}$
,,,,,Relcovaptan,C$_{28}$H$_{27}$Cl$_{2}$N$_{3}$O$_{7}$S
,,,,,Zanamivir,C$_{12}$H$_{20}$N$_{4}$O$_{7}$
,,,,,Rilpivirine,C$_{22}$H$_{18}$N$_{6}$
,,,,290.162,Sedoheptulose 7-phosphate,C$_{7}$H$_{15}$O$_{10}$P
,,,,,SB-277 011-A,
,,,,,Petrichloral,C$_{13}$H$_{16}$Cl$_{12}$O$_{8}$
,,,,,Perylenetetracarboxylic dianhydride,C$_{24}$H$_{8}$O$_{6}$
,,,,,Bendazac,C$_{16}$H$_{14}$N$_{2}$O$_{3}$
,,,,,SM-130 686,
,,,,,Lumacaftor,C$_{24}$H$_{18}$F$_{2}$N$_{2}$O$_{5}$
552,3.464,1265,143,86.845(3),Lithium bromide,LiBr
,,,,,CP-93129,C$_{12}$H$_{13}$N$_{3}$O
,,,,,Vortioxetine,C$_{18}$H$_{22}$N$_{2}$S
,,,,1060.24,Echinocandin B,C$_{52}$H$_{81}$N$_{7}$O$_{16}$
,3.61,106,decomposes,430.49,Phosphorus pentabromide,PBr$_{5}$
125,,,,,Alpha-Ketoadipic acid,C$_{6}$H$_{8}$O$_{5}$
,2.91,,decomposes,72.0768,Calcium peroxide,CaO$_{2}$
111,,,,,Hexaconazole,C$_{14}$N$_{3}$H$_{17}$OCl$_{2}$
,,,,,Bevantolol,C$_{20}$H$_{27}$NO$_{4}$
,,,,,Alpha-GPC,C$_{8}$H$_{20}$NO$_{6}$P
,,,,,Lupitidine,C$_{21}$H$_{27}$N$_{5}$O$_{2}$S
,,,,,ABT-239,C$_{22}$H$_{22}$N$_{2}$O
,,,,302.2357,Morin (flavonol),C$_{15}$H$_{10}$O$_{7}$
,,,,,NPS-2143,C$_{24}$H$_{25}$ClN$_{2}$O$_{2}$
,,,,113.11,Glutarimide,C$_{5}$H$_{7}$NO$_{2}$
,,,,,PHA-543 613,
203.7,,247.9,130,103.12,Gamma-Aminobutyric acid,C$_{4}$H$_{9}$NO$_{2}$
,,,,,Glufosfamide,C$_{10}$H$_{21}$Cl$_{2}$N$_{2}$O$_{7}$P
19,,243,Insoluble,172.31,Undecanol,C$_{11}$H$_{24}$O
,,,,,Loperamide,C$_{29}$H$_{33}$ClN$_{2}$O$_{2}$
,,,,,Seratrodast,C$_{22}$H$_{26}$O$_{4}$
,,,,,Etoglucid,C$_{12}$H$_{22}$O$_{6}$
10-Sep,0.871,201,,140.27,Cyclodecane,C$_{10}$H$_{20}$
,,,,,O-2545,C$_{26}$H$_{36}$N$_{2}$O$_{2}$
,,,,194.31,Solanone,C$_{13}$H$_{22}$O
190,2.28,365.1,dihydrate:,143.86,Iron(II) oxalate,FeC$_{2}$O$_{4}$(anhydrous)
,,,,340.46,Optochin,C$_{21}$H$_{28}$N$_{2}$O$_{2}$
,0.733,2,,54.09,Cyclobutene,C$_{4}$H$_{6}$
,,,,67.51804,Methylammonium halide,CH$_{3}$NH$_{3}$Cl
,,,,,Ethadione,C$_{7}$H$_{11}$NO$_{3}$
688.7,0.78,decomposes at 900-1000,reacts,7.95,Lithium hydride,LiH
-128,,-33,,42.08,Cyclopropane,C$_{3}$H$_{6}$
,,,,,Pertechnetic acid,HO$_{4}$Tc
,,94,,,Thietane,C$_{3}$H$_{6}$S
124-127,,,0.1,180.16,Talose,C$_{6}$H$_{12}$O$_{6}$
,,,,,Canakinumab,C$_{6452}$H$_{9958}$N$_{1722}$O$_{2010}$S$_{42}$
295-296,,,,245.88,Chloranil,C$_{6}$Cl$_{4}$O$_{2}$
,,,,,Brodimoprim,C$_{13}$H$_{15}$BrN$_{4}$O$_{2}$
,,,,,Alpha-Propiolactone,C$_{3}$H$_{4}$O$_{2}$
,,,,,Clortermine,C$_{10}$H$_{14}$ClN
,,,,,Fasiplon,C$_{13}$H$_{15}$N$_{5}$O$_{2}$
,,,,,MDMA,C$_{11}$H$_{15}$NO$_{2}$
,,,,,Cladribine,C$_{10}$H$_{12}$ClN$_{5}$O$_{3}$
162-164,1.314,,insoluble,,Benzanilide,C$_{13}$H$_{11}$NO
,,,,,Fluprazine,C$_{14}$H$_{19}$F$_{3}$N$_{4}$O
,,,,,Pidotimod,C$_{9}$H$_{12}$N$_{2}$O$_{4}$S
,,,,,Cisplatin,H$_{6}$Cl$_{2}$N$_{2}$Pt
,,,,,Metoprolol,C$_{15}$H$_{25}$NO$_{3}$
,,,,,Malabaricane,C$_{30}$H$_{56}$
-78,1.0306,57,Insoluble,,Propargyl chloride,C$_{3}$H$_{3}$Cl
200,,,25.08,,Sodium salicylate,C$_{7}$H$_{5}$NaO$_{3}$
,,,,,Ethyl cellulose,variable
,,,Insoluble,,Carbophenothion,C$_{11}$H$_{16}$ClO$_{2}$PS$_{3}$
-26,0.862,245,,,Ethyl decanoate,C$_{12}$H$_{24}$O$_{2}$
95-98,,,,,Tetraoctylammonium bromide,C$_{32}$H$_{68}$BrN
-2,1.058,248,Insoluble,143.19,Quinaldine,C$_{10}$H$_{9}$N
,,,,404.4153,Bentiromide,C$_{23}$H$_{20}$N$_{2}$O$_{5}$