Name,formula,Property Molar Mass,Property Molar Mass units,Property Melting Point,Property Melting Point units,Property Density,Property Density units,Property Boiling Point,Property Boiling Point units,Property Solubility
Sodium methylsulfinylmethylide,C$_{2}$H$_{5}$NaOS,,,,,,,,,Reacts forming DMSO
Calcium bisulfite,Ca(HSO$_{3}$)$_{2}$,202.22,g/mol,,,,,,,
Terphenyl,C$_{18}$H$_{14}$,,,212-214,$^{\circ}$C,1.24,g/cm$^{3}$,389,$^{\circ}$C,Insoluble
Sameridine,C$_{21}$H$_{34}$N$_{2}$O,,,,,,,,,
Tuataric acid,C$_{8}$H$_{12}$O$_{2}$,,,,,,,,,
Maltodextrin,C$_{6n}$H$_{(10n+2)}$O$_{(5n+1)}$,,,,,,,,,Freely soluble or readily dispersible in water
Drotaverine,C$_{24}$H$_{31}$NO$_{4}$,,,,,,,,,
Azalanstat,C$_{22}$H$_{24}$ClN$_{3}$O$_{2}$S,,,,,,,,,
Potassium manganate,K$_{2}$MnO$_{4}$,197.132,g/mol,190,$^{\circ}$C,,,,,decomposes
Limonene,C$_{10}$H$_{16}$,,,-74.35,$^{\circ}$C,0.8411,g/cm$^{3}$,176,$^{\circ}$C,insoluble
Violanthrone,C$_{34}$H$_{16}$O$_{2}$,,,,,,,,,
Mepenzolate,C21H26NO3charge+,,,,,,,,,
Difluoromethane,CH$_{2}$F$_{2}$,,,-136,$^{\circ}$C,,,-52,$^{\circ}$C,
Aldicarb,C$_{7}$H$_{14}$N$_{2}$O$_{2}$S,,,100,$^{\circ}$C,1.195,g/cm$^{3}$,,,
Deptropine,C$_{23}$H$_{27}$NO,,,,,,,,,
Lysergic acid 2 4-dimethylazetidide,,,,,,,,,,
Triethylsilane,C$_{6}$H$_{16}$Si,116.28,g/mol,-156.1,$^{\circ}$C,,,,,9.3
Zinc hydroxide,Zn(OH)$_{2}$,99.424,g/mol,125,$^{\circ}$C,,,,,slightly soluble
JZL195,C$_{24}$H$_{23}$N$_{3}$O$_{5}$,,,,,,,,,
Iodobenzene dichloride,C$_{6}$H$_{5}$ICl$_{2}$,,,115-120,$^{\circ}$C,2.2,g/cm$^{3}$,,,
Rubrosterone,C$_{19}$H$_{26}$O$_{5}$,,,,,,,,,
FG-7142,C$_{13}$H$_{11}$N$_{3}$O,,,,,,,,,
Dihydroxyphenylglycine,C$_{8}$H$_{9}$NO$_{4}$,,,,,,,,,
Oxymorphone,C$_{17}$H$_{19}$NO$_{4}$,,,,,,,,,
Thiamine pyrophosphate,C$_{12}$H$_{19}$N$_{4}$O$_{7}$P$_{2}$S$^{+}$,425.314382,g/mol,,,,,,,
Methyl vinyl ketone,C$_{4}$H$_{6}$O,70.09,g/mol,-7,$^{\circ}$C,0.8407,g/cm$^{3}$,81.4,$^{\circ}$C,
Vanadium tetrafluoride,VF$_{4}$,,,325,$^{\circ}$C,3.15,g/cm$^{3}$,,,Very soluble
Thiepane,C$_{6}$H$_{12}$S,,,,,,,,,
Tenonitrozole,C$_{8}$H$_{5}$N$_{3}$O$_{3}$S$_{2}$,,,,,,,,,
Etamiphylline,C$_{13}$H$_{21}$N$_{5}$O$_{2}$,,,,,,,,,
Copper(II) phosphate,Cu$_{3}$(PO$_{4}$)$_{2}$,380.580722,g/mol,,,,,,,insoluble
Cabazitaxel,C$_{45}$H$_{57}$NO$_{14}$,,,,,,,,,
Pentolinium,C$_{15}$H$_{32}$N$_{2}$,,,,,,,,,
Bromotrifluoromethane,CBrF$_{3}$,,,-167.78,$^{\circ}$C,1.538,g/cm$^{3}$,-57.75,$^{\circ}$C,0.03
Dibenzofuran,C$_{12}$H$_{8}$O,168.19,g/mol,81-85,$^{\circ}$C,,,285,$^{\circ}$C,Insoluble
Trihexyphenidyl,C$_{20}$H$_{31}$NO,,,,,,,,,
Propachlor,C$_{11}$H$_{14}$ClNO,,,,,,,,,
Calcium acetate,C$_{4}$H$_{6}$O$_{4}$Ca,,,160,$^{\circ}$C,1.509,g/cm$^{3}$,,,37.4
Iopanoic acid,,,,,,,,,,
Uranium tetrafluoride,UF$_{4}$,314.02,g/mol,1036,$^{\circ}$C,,,1417,$^{\circ}$C,Insoluble.
Cyanide,CN$^{-}$,,,,,,,,,
Racemic epinephrine,,,,,,,,,,
Tolmetin,C$_{15}$H$_{15}$NO$_{3}$,,,,,,,,,
Citropten,C$_{11}$H$_{10}$O$_{4}$,,,146,$^{\circ}$C,,,,,
Nafimidone,C$_{15}$H$_{12}$N$_{2}$O,,,,,,,,,
ABT-418,C$_{9}$H$_{14}$N$_{2}$O,,,,,,,,,
Bazedoxifene,C$_{30}$H$_{34}$N$_{2}$O$_{3}$,,,,,,,,,
Furethidine,C$_{21}$H$_{31}$NO$_{4}$,,,,,,,,,
Thujone,C$_{10}$H$_{16}$O,,,,,0.92,g/cm$^{3}$,201,$^{\circ}$C,
Orthocarbonic acid,CH$_{4}$O$_{4}$,,,,,,,,,
Betazole,C$_{5}$H$_{9}$N$_{3}$,111.145,g/mol,,,,,,,
Tridihexethyl,C21H36NO1charge+,,,,,,,,,
Methylmercuric dicyanamide,C$_{3}$H$_{6}$HgN$_{4}$,298.70,g/mol,,,,,,,
Etofylline nicotinate,,,,,,,,,,
Ethyl heptanoate,C$_{9}$H$_{18}$O$_{2}$,158.27,g/mol,-66,$^{\circ}$C,0.860,g/cm$^{3}$,188-189,$^{\circ}$C,
Rivastigmine,C$_{14}$H$_{22}$N$_{2}$O$_{2}$,,,,,,,,,
Phlorizin,C$_{21}$H$_{24}$O$_{10}$,,,106-109,$^{\circ}$C,,,,,
Phenylpiracetam,C$_{12}$H$_{14}$N$_{2}$O$_{2}$,,,,,,,,,
Ticlatone,C$_{7}$H$_{4}$ClNOS,,,270,$^{\circ}$C,,,,,
Chromium(VI) oxide peroxide,CrO$_{5}$,,,,,,,,,soluble (decomposes without stabilisers)
Thiambutenes,C$_{12}$H$_{13}$NS$_{2}$,,,174,$^{\circ}$C,,,,,
Vedaclidine,C$_{13}$H$_{21}$N$_{3}$S$_{2}$,,,,,,,,,
Triglycine sulfate,C$_{6}$H$_{17}$N$_{3}$O$_{10}$S,,,,,1.69,g/cm$^{3}$,,,
Hydroxymethyl,-CH2OH,,,,,,,,,
Guaiacolsulfonate,C$_{7}$H$_{8}$O$_{5}$S,,,,,,,,,
Tartaric acid,C$_{4}$H$_{6}$O$_{6}$(Basicformula),150.087,g/mol,171-174,$^{\circ}$C,,,,,1.33
Spirobarbital,C$_{12}$H$_{18}$N$_{2}$O$_{3}$,,,,,,,,,
Carpacin,C$_{11}$H$_{12}$O$_{3}$,,,,,,,,,
Dichlorofluoromethane,CHCl$_{2}$F,102.92,g/mol,-135,$^{\circ}$C,,,8.92,$^{\circ}$C,9.420
NS-2664,C$_{20}$H$_{14}$N$_{4}$O,,,,,,,,,
Citronellol,C$_{10}$H$_{20}$O,,,,,0.855,g/cm$^{3}$,225,$^{\circ}$C,
Nedocromil,C$_{19}$H$_{17}$NO$_{7}$,,,,,,,,,
Sodium chromate,Na$_{2}$CrO$_{4}$,161.97,g/mol,792,$^{\circ}$C,2.698,g/cm$^{3}$,,,0.344
Tryptophan tryptophylquinone,C$_{22}$H$_{20}$N$_{4}$O$_{6}$,,,,,,,,,
M-Coumaric acid,C$_{9}$H$_{8}$O$_{3}$,164.16,g/mol,,,,,,,
Cycrimine,C$_{19}$H$_{29}$NO,,,,,,,,,
Heptyl acetate,C$_{9}$H$_{18}$O$_{2}$,158.24,g/mol,-50,$^{\circ}$C,,,192-193,$^{\circ}$C,
Niceritrol,C$_{29}$H$_{24}$N$_{4}$O$_{8}$,,,,,,,,,
Fingolimod,C$_{19}$H$_{33}$NO$_{2}$,,,,,,,,,
CAR-301 060,,,,,,,,,,
Farglitazar,C$_{34}$H$_{30}$N$_{2}$O$_{5}$,,,,,,,,,
Traxoprodil,C$_{20}$H$_{25}$NO$_{3}$,,,,,,,,,
Retapamulin,C$_{30}$H$_{47}$NO$_{4}$S,,,,,,,,,
Phenoxypropazine,C$_{9}$H$_{14}$N$_{2}$O,,,,,,,,,
Pentachloronitrobenzene,C$_{6}$Cl$_{5}$NO$_{2}$,295.36,g/mol,44,$^{\circ}$C,,,328,$^{\circ}$C,0.44
Ninhydrin,C$_{9}$H$_{6}$O$_{4}$,,,250,$^{\circ}$C,0.862,g/cm$^{3}$,,,20
Altretamine,C$_{9}$H$_{18}$N$_{6}$,,,,,,,,,
Phenylboronic acid,C$_{6}$H$_{7}$BO$_{2}$,121.93,g/mol,216,$^{\circ}$C,,,,,0.1
Disodium methyl arsenate,CH$_{3}$AsNa$_{2}$O$_{3}$,183.93,g/mol,,,,,,,
Hydrogen sulfide,H$_{2}$S,,,-82,$^{\circ}$C,,,-60,$^{\circ}$C,4
Trisodium citrate,Na$_{3}$C$_{6}$H$_{5}$O$_{7}$,,,>300,$^{\circ}$C,1.7,g/cm$^{3}$,,,Pentahydrate form: 92
Solithromycin,C$_{43}$H$_{65}$FN$_{6}$O$_{10}$,,,,,,,,,
Methacrolein,C$_{4}$H$_{6}$O,70.09,g/mol,-81,$^{\circ}$C,0.847,g/cm$^{3}$,69,$^{\circ}$C,
Ethynyl radical,C$_{2}$H,,,,,,,,,
Zolmitriptan,C$_{16}$H$_{21}$N$_{3}$O$_{2}$,,,,,,,,,
Methylestrenolone,C$_{19}$H$_{28}$O$_{2}$,288.42,g/mol,,,,,,,
Gamma-Tocotrienol,C$_{28}$H$_{42}$O$_{2}$,410.63188,g/mol,,,,,,,
Propiomazine,C$_{20}$H$_{24}$N$_{2}$OS,,,,,,,,,
Diethylene glycol dinitrate,C$_{4}$H$_{8}$N$_{2}$O$_{7}$,,,-11.5,$^{\circ}$C,,,197,$^{\circ}$C,4.1
Tyloxapol,chemical_formula(C$_{15}$H$_{21}$O(C$_{2}$H$_{4}$O)$_{m}$)$_{n}$,,,,,,,,,
Ethyl methanesulfonate,CH$_{3}$SO$_{3}$C$_{2}$H$_{5}$,124.16,g/mol,< 25,$^{\circ}$C,1.1452,g/cm$^{3}$,213-213.5,$^{\circ}$C,
Perfluoroethanamine,C$_{24}$H$_{46}$O$_{6}$,171.02,g/mol,,,,,,,
Iodoacetic acid,C$_{2}$H$_{3}$IO$_{2}$,,,81,$^{\circ}$C,,,208,$^{\circ}$C,
Lysergic acid diethylamide,,,,,,,,,,
Beryllium sulfide,BeS,41.077,g/mol,1800,$^{\circ}$C,2.36,g/cm$^{3}$,,,
Nelotanserin,C$_{18}$H$_{15}$BrF$_{2}$N$_{4}$O$_{2}$,,,,,,,,,
Flavokavain C,C$_{17}$H$_{16}$O$_{5}$,,,,,,,,,
AH-7921,C$_{16}$H$_{22}$Cl$_{2}$N$_{2}$O,,,,,,,,,
Neutral red,C$_{15}$H$_{17}$ClN$_{4}$,288.78,g/mol,290,$^{\circ}$C,,,,,
Altrenogest,C$_{21}$H$_{26}$O$_{2}$,,,,,,,,,
Diflunisal,C$_{13}$H$_{8}$F$_{2}$O$_{3}$,,,,,,,,,
Corrin,C$_{19}$H$_{22}$N$_{4}$,,,,,,,,,
Indoprofen,C$_{17}$H$_{15}$NO$_{3}$,,,,,,,,,
Pyrazolidine,C$_{3}$H$_{8}$N$_{2}$,,,10-12,$^{\circ}$C,0.9952,g/cm$^{3}$,138,$^{\circ}$C,
LSM-775,C$_{20}$H$_{23}$N$_{3}$O$_{2}$,,,,,,,,,
Amrinone,C$_{10}$H$_{9}$N$_{3}$O,,,,,,,,,
Oxaliplatin,C$_{8}$H$_{14}$N$_{2}$O$_{4}$Pt,,,,,,,,,
Nicomorphine,C$_{29}$H$_{25}$N$_{3}$O$_{5}$,,,,,,,,,
Lithium amide,LiNH$_{2}$,22.96,g/mol,375,$^{\circ}$C,1.178,g/cm$^{3}$,430,$^{\circ}$C,reacts
Methylthiouracil,C$_{5}$H$_{6}$N$_{2}$OS,,,,,,,,,
Iceane,C$_{12}$H$_{18}$,163.56,g/mol,,,,,,,
Physostigmine,C$_{15}$H$_{21}$N$_{3}$O$_{2}$,,,,,,,,,
Terbutaline,C$_{12}$H$_{19}$NO$_{3}$,,,,,,,,,
Hyaluronidase,C$_{2455}$H$_{3775}$N$_{617}$O$_{704}$S$_{2}$,,,,,,,,,
Dioctyl sodium sulfosuccinate,C$_{20}$H$_{37}$NaO$_{7}$S,444.56,g/mol,153-157,$^{\circ}$C,1.1,g/cm$^{3}$,,,1
Methanesulfonic anhydride,C$_{2}$H$_{6}$O$_{5}$S$_{2}$,174.20,g/mol,,,,,,,
Nickel(II) nitrite,Ni(NO$_{2}$)$_{2}$,150.73,g/mol,1555,$^{\circ}$C,8.90,g/cm$^{3}$,2837,$^{\circ}$C,very soluble
Lithium cyanide,HNO$_{4}$,32.959,g/mol,160,$^{\circ}$C,1.073,g/cm$^{3}$,,,Soluble
Cyclopentenone,C$_{5}$H$_{6}$O,,,,,,,150,$^{\circ}$C,almost insoluble in water
Cobalt(II) iodide,CoI$_{2}$,312.7421,g/mol,,,$\alpha$-form: 5.584,g/cm$^{3}$,570,$^{\circ}$C,67.0
Cadmium tungstate,CdWO$_{4}$,,,1325,$^{\circ}$C,,,,,0.04642
Aprobarbital,C$_{10}$H$_{14}$N$_{2}$O$_{3}$,,,,,,,,,
Darapladib,C$_{36}$H$_{38}$F$_{4}$N$_{4}$O$_{2}$S,,,,,,,,,
Fananserin,C$_{23}$H$_{24}$FN$_{3}$O$_{2}$S,,,,,,,,,
Platensimycin,C$_{24}$H$_{27}$NO$_{7}$,441.47368,g/mol,,,,,,,
Prulifloxacin,C$_{21}$H$_{20}$FN$_{3}$O$_{6}$S,,,,,,,,,
Panipenem,C$_{15}$H$_{21}$N$_{3}$O$_{4}$S,,,,,,,,,
Fluridone,C$_{19}$H$_{14}$F$_{3}$NO,329.3,g/mol,,,,,,,
Zinc sulfide,ZnS,97.474,g/mol,1185,$^{\circ}$C,4.090,g/cm$^{3}$,,,negligible
Hydroxocobalamin,C$_{62}$H$_{89}$CoN$_{13}$O$_{15}$P,,,,,,,,,
Uridine diphosphate,C$_{9}$H$_{14}$N$_{2}$O$_{12}$P$_{2}$,,,,,,,,,
Calcium arsenate,Ca$_{3}$As$_{2}$O$_{8}$,398.072,g/mol,,,,,,,
Tungsten hexafluoride,WF$_{6}$,297.830,g/mol,2.3,$^{\circ}$C,,,17.1,$^{\circ}$C,Hydrolyzes
Bisphenol A diglycidyl ether,C$_{21}$H$_{24}$O$_{4}$,,,,,,,,,
Glucuronic acid,C$_{6}$H$_{10}$O$_{7}$,,,159-161,$^{\circ}$C,,,,,
Phosphopantetheine,C$_{11}$H$_{23}$N$_{2}$O$_{7}$PS,358.349,g/mol,,,,,,,
Zeatin,C$_{10}$H$_{13}$N$_{5}$O,,,208-210,$^{\circ}$C,,,,,
Xenon hexafluoroplatinate,Xe$^{+}$(PtF$_{6}$)$^{-}$,,,,,,,,,
Perinone,C$_{26}$H$_{12}$N$_{4}$O$_{2}$,,,,,,,,,
Quinolacetic acid,C$_{8}$H$_{8}$O$_{4}$,,,,,,,,,
Sorivudine,C$_{11}$H$_{13}$BrN$_{2}$O$_{6}$,,,,,,,,,
Ethopabate,C$_{12}$H$_{15}$NO$_{4}$,237.25,g/mol,,,,,,,
Dimethyl dicarbonate,C$_{4}$H$_{6}$O$_{5}$,,,16,$^{\circ}$C,,,172,$^{\circ}$C,
Sarsasapogenin,C$_{27}$H$_{44}$O$_{3}$,416.64,g/mol,199-199.5,$^{\circ}$C,,,,,
Diazene,H$_{2}$N$_{2}$,,,-80,$^{\circ}$C,,,,,
Lorcaserin,C$_{11}$H$_{14}$ClN,,,,,,,,,
Cortivazol,C$_{32}$H$_{38}$N$_{2}$O$_{5}$,,,,,,,,,
Ethisterone,C$_{21}$H$_{28}$O$_{2}$,,,,,,,,,
Methional,C$_{4}$H$_{8}$OS,,,,,,,,,
Curcuminoid,C$_{20}$H$_{18}$O$_{5}$,338.35,g/mol,172,$^{\circ}$C,,,,,
ZD6126,C$_{20}$H$_{24}$NO$_{8}$P,,,,,,,,,
Diphenylphosphine,C$_{12}$H$_{11}$P,186.19,g/mol,,,,,280,$^{\circ}$C,Insoluble
Pyritinol,C$_{16}$H$_{20}$N$_{2}$O$_{4}$S$_{2}$,,,,,,,,,
Suxethonium chloride,,,,,,,,,,
BRL-44408,C$_{13}$H$_{17}$N$_{3}$,,,,,,,,,
Blinatumomab,C$_{2367}$H$_{3577}$N$_{649}$O$_{772}$S$_{19}$,,,,,,,,,
Sodium bisulfite,NaHSO$_{3}$,104.061,g/mol,150,$^{\circ}$C,1.48,g/cm$^{3}$,315,$^{\circ}$C,42
WAY-208 466,,,,,,,,,,
Phenylsulfinic acid,C$_{6}$H$_{6}$O$_{2}$S,,,83-84,$^{\circ}$C,1.45,g/cm$^{3}$,339.4,$^{\circ}$C,
Queuine,C$_{12}$H$_{15}$N$_{5}$O$_{3}$,277.28,g/mol,,,,,,,
Dropropizine,C$_{13}$H$_{20}$N$_{2}$O$_{2}$,,,,,,,,,
Strontium oxide,SrO,103.619,g/mol,2531,$^{\circ}$C,4.70,g/cm$^{3}$,3200,$^{\circ}$C,"reacts, forms Sr(OH)$_{2}$"
Fentiazac,C$_{17}$H$_{12}$ClNO$_{2}$S,,,162-163,$^{\circ}$C,,,,,
Oxantel,C$_{13}$H$_{16}$N$_{2}$O,,,,,,,,,
Para-Methoxyamphetamine,C$_{10}$H$_{15}$NO,,,,,,,,,
Lovastatin,C$_{24}$H$_{36}$O$_{5}$,,,,,,,,,
Ecgonidine,C$_{9}$H$_{13}$NO$_{2}$,,,,,,,,,
Benzocaine,C$_{9}$H$_{11}$NO$_{2}$,,,,,,,,,
Nortriptyline,C$_{19}$H$_{21}$N,,,,,,,,,
Trimethobenzamide,C$_{21}$H$_{28}$N$_{2}$O$_{5}$,,,,,,,,,
NBD-TMA,C$_{11}$H$_{16}$N$_{5}$O$^{+}_{3}$,266.28,g/mol,,,,,,,
PHA-57378,C$_{14}$H$_{16}$N$_{2}$O,,,,,,,,,
Diphosphorus tetraiodide,P$_{2}$I$_{4}$,569.57,g/mol,124-127,$^{\circ}$C,,,,,Decomposes
Nystatin,C$_{47}$H$_{75}$NO$_{17}$,,,,,,,,,
Dexamethasone isonicotinate,C$_{28}$H$_{32}$FNO$_{6}$,497.56,g/mol,,,,,,,
Phosmet,C$_{11}$H$_{12}$NO$_{4}$PS$_{2}$,,,72,$^{\circ}$C,1.03,g/cm$^{3}$,Decomposes at >100,$^{\circ}$C,
LY-320 135,,,,,,,,,,
Methane,CH$_{4}$,,,,,,,,,22.7
Zeaxanthin,C$_{40}$H$_{56}$O$_{2}$,568.88,g/mol,215.5,$^{\circ}$C,,,,,insol.
Gabexate,C$_{16}$H$_{23}$N$_{3}$O$_{4}$,,,,,,,,,
Chromic acid,H$_{2}$CrO$_{4}$,,,197,$^{\circ}$C,,,250,$^{\circ}$C,1666.6
Hydronium,H$_{3}$O$^{+}$,19.02,g/mol,,,,,,,
Dhurrin,C$_{14}$H$_{17}$NO$_{7}$,311.29,g/mol,,,,,,,
Vicenistatin,C$_{30}$H$_{48}$N$_{2}$O$_{4}$,,,,,,,,,
NBQX,C$_{12}$H$_{8}$N$_{4}$O$_{6}$S,,,,,,,,,Soluble to 100
Salvinorin B methoxymethyl ether,,,,,,,,,,
Thiocyanate,C$_{6}$H$_{14}$O$_{6}$,,,,,,,,,
Carboprost,C$_{21}$H$_{36}$O$_{5}$,,,,,,,,,
Oxazole,C$_{7}$H$_{6}$N$_{2}$,69.06,g/mol,,,1.050,g/cm$^{3}$,69-70,$^{\circ}$C,
Ipsapirone,C$_{19}$H$_{23}$N$_{5}$O$_{3}$S,,,,,,,,,
Catechin,C$_{15}$H$_{14}$O$_{6}$,,,175,$^{\circ}$C,,,,,
Ecdysone,C$_{27}$H$_{44}$O$_{6}$,464.63,g/mol,,,,,,,
Israpafant,C$_{28}$H$_{29}$ClN$_{4}$S,,,,,,,,,
Hafnium diboride,HfB$_{2}$,200.11,g/mol,ca. 3250,$^{\circ}$C,10.5,g/cm$^{3}$,,,
Potassium hydrogenoxalate,C$_{2}$HKO$_{4}$,,,,,2.0,g/cm$^{3}$,,,2.5
Squalamine,C$_{34}$H$_{65}$N$_{3}$O$_{5}$S,628,g/mol,,,,,,,
Ifoxetine,C$_{13}$H$_{19}$NO$_{2}$,,,,,,,,,
Trimethylgallium,Ga(CH$_{3}$)$_{3}$,114.827,g/mol,-15,$^{\circ}$C,,,55.7,$^{\circ}$C,
Flutrimazole,C$_{22}$H$_{16}$F$_{2}$N$_{2}$,,,,,,,,,
Methazolamide,C$_{5}$H$_{8}$N$_{4}$O$_{3}$S$_{2}$,,,,,,,,,
Zirconium(III) chloride,ZrCl$_{3}$,,,627,$^{\circ}$C,3.05,g/cm$^{3}$,,,Reacts
Aciclovir,C$_{8}$H$_{11}$N$_{5}$O$_{3}$,,,,,,,,,
Meciadanol,C$_{16}$H$_{16}$O$_{6}$,304.29,g/mol,,,,,,,
Parietin,C$_{16}$H$_{12}$O$_{5}$,284.26348,g/mol,,,,,,,
Anisyl alcohol,C$_{8}$H$_{10}$O$_{2}$,,,22-25,$^{\circ}$C,1.113,g/cm$^{3}$,259,$^{\circ}$C,low
Tiabendazole,C$_{10}$H$_{7}$N$_{3}$S,,,,,,,,,
Heptafluorobutyric acid,C$_{4}$HF$_{7}$O$_{2}$,,,,,,,120,$^{\circ}$C,high
Fluotracen,C$_{21}$H$_{24}$F$_{3}$N,,,,,,,,,
Metapramine,C$_{16}$H$_{18}$N$_{2}$,,,,,,,,,
Furonazide,C$_{12}$H$_{11}$N$_{3}$O$_{2}$,,,199-201.5,$^{\circ}$C,,,,,
Ceftriaxone,C$_{18}$H$_{18}$N$_{8}$O$_{7}$S$_{3}$,,,,,,,,,
Simfibrate,C$_{23}$H$_{26}$Cl$_{2}$O$_{6}$,,,,,,,,,
Hydrindantin,C$_{18}$H$_{10}$O$_{6}$,322.268,g/mol,decomposes at 250,$^{\circ}$C,4.44,g/cm$^{3}$,,,
Furfenorex,C$_{15}$H$_{19}$NO,,,,,,,,,
Sodium cyanate,NaOCN,65.01,g/mol,550,$^{\circ}$C,1.893,g/cm$^{3}$,,,11.6
Palladium(II) acetylacetonate,PdC$_{10}$H$_{14}$O$_{4}$,,,200-251,$^{\circ}$C,,,,,
Thiamine mononitrate,C$_{12}$H$_{17}$N$_{5}$O$_{4}$S,,,,,,,,,
Lanostane,C$_{30}$H$_{54}$,,,98-99,$^{\circ}$C,,,,,
Indene,C$_{9}$H$_{8}$,,,-25,$^{\circ}$C,,,181.6,$^{\circ}$C,Insoluble
Sakuranetin,C$_{16}$H$_{14}$O$_{5}$,286.27,g/mol,,,,,,,
Ethyl decadienoate,C$_{12}$H$_{20}$O$_{2}$,,,,,,,70-72,$^{\circ}$C,
Trimedoxime bromide,,,,,,,,,,
Haloxazolam,C$_{17}$H$_{14}$BrFN$_{2}$O$_{2}$,,,,,,,,,
Arsenic trichloride,AsCl$_{3}$,181.28,g/mol,-16.2,$^{\circ}$C,,,130.2,$^{\circ}$C,decomposes
Indole-5 6-quinone,C$_{8}$H$_{5}$NO$_{2}$,147.13,g/mol,,,,,,,
Carisoprodol,C$_{12}$H$_{24}$N$_{2}$O$_{4}$,,,,,,,,,
Aurintricarboxylic acid,C$_{22}$H$_{14}$O$_{9}$,,,300,$^{\circ}$C,,,,,
Gramicidin B,,,,,,,,,,
Arsenic dioxide,AsO$_{2}$(As$_{2}$O$_{4}$),106.920,g/mol,,,,,,,
Silicon oxynitride,OSi$_{2}$N$_{2}$,,,,,,,,,
Sucralfate,C$_{12}$H$_{54}$Al$_{16}$O$_{75}$S$_{8}$,,,,,,,,,
Hepzidine,C$_{21}$H$_{25}$NO,,,,,,,,,
Sarpogrelate,C$_{24}$H$_{31}$NO$_{6}$,,,,,,,,,
Xylonic acid,C$_{5}$H$_{10}$O$_{6}$,166.13,g/mol,,,,,,,
Promethium(III) oxide,Pm$_{2}$O$_{3}$,337.824,g/mol,~2320,$^{\circ}$C,,,,,
Psi-Tectorigenin,C$_{16}$H$_{12}$O$_{6}$,,,,,,,,,
Arabinofuranosylcytosine triphosphate,C$_{9}$H$_{16}$N$_{3}$O$_{14}$P$_{3}$,,,,,,,,,
Vatalanib,C$_{20}$H$_{15}$ClN$_{4}$,,,,,,,,,
Copper(II) triflate,CuF$_{6}$O$_{6}$C$_{2}$S$_{2}$,,,,,,,,,"very soluble, hygroscopic"
Quinoxalinedione,C$_{8}$H$_{6}$N$_{2}$O$_{2}$,,,,,1.549,g/cm$^{3}$,,,
Pigment Red 29,C$_{24}$H$_{10}$N$_{2}$O$_{4}$,,,,,,,,,
Ormeloxifene,C$_{30}$H$_{35}$NO$_{3}$,,,,,,,,,
Benzanthrone,C$_{17}$H$_{10}$O,,,170,$^{\circ}$C,,,,,Insoluble
Benzilone,C$_{22}$H$_{28}$NO$_{3}$,,,,,,,,,
Metopon,C$_{18}$H$_{21}$NO$_{3}$,,,,,,,,,
TPPTS,P(C$_{6}$H$_{4}$SO$_{3}$Na)$_{3}$,568.42,g/mol,,,,,,,Soluble in water
Acetiromate,C$_{15}$H$_{9}$I$_{3}$O$_{5}$,,,,,,,,,
Neptunium(IV) oxide,NpO$_{2}$,269,g/mol,,,11.1,g/cm$^{3}$,,,
Spiraeoside,C$_{21}$H$_{20}$O$_{12}$,464.37,g/mol,,,,,,,
Terephthalic acid,C$_{8}$H$_{6}$O$_{4}$,166.13,g/mol,300,$^{\circ}$C,1.522,g/cm$^{3}$,,,0.0017
Anisodine,C$_{17}$H$_{21}$NO$_{5}$,,,,,,,,,
Rural life in the People's Republic of China,NH$_{3}$,,,,,,,,,
Methylenedioxymethoxyethylamphetamine,C$_{13}$H$_{19}$NO$_{3}$,237.295,g/mol,,,,,,,
Sparassol,C$_{10}$H$_{12}$O$_{4}$,196.20,g/mol,,,,,,,
Deramciclane,C$_{20}$H$_{31}$NO,,,,,,,,,
Suplatast tosilate,,,,,,,,,,
Metixene,C$_{20}$H$_{23}$NS,,,,,,,,,
Dichloromethane,CH$_{2}$Cl$_{2}$,,,-96.7,$^{\circ}$C,1.3266,g/cm$^{3}$,39.6,$^{\circ}$C,25.6
Alpha-Melanocyte-stimulating hormone,C$_{77}$H$_{109}$N$_{21}$O$_{19}$S,1664.884,g/mol,,,,,,,
DPA-713,C$_{21}$H$_{26}$N$_{4}$O$_{2}$,,,,,,,,,
Pentaborane,B$_{5}$H$_{9}$,63.12,g/mol,-46.8,$^{\circ}$C,,,60.1,$^{\circ}$C,Reacts with water
Neurotensin,C$_{78}$H$_{121}$N$_{21}$O$_{20}$,,,,,,,,,
Chromium pentafluoride,CrF$_{5}$,291.71,g/mol,34,$^{\circ}$C,2.89,g/cm$^{3}$,117,$^{\circ}$C,
Tipepidine,C$_{15}$H$_{17}$NS$_{2}$,,,,,,,,,
SL-651 498,,,,,,,,,,
Molybdenum tetrachloride,Cl$_{4}$Mo,237.752,g/mol,552,$^{\circ}$C,,,,,Decomposes
Aspergillomarasmine A,C$_{10}$H$_{17}$N$_{3}$O$_{8}$,,,,,,,,,
Azaperone,C$_{19}$H$_{22}$FN$_{3}$O,,,,,,,,,
Tetrakis(dimethylamido)titanium,C$_{8}$H$_{24}$N$_{4}$Ti,224.19,g/mol,,,0.947,g/cm$^{3}$,,,reacts with water
Uridine diphosphate galactose,C$_{15}$H$_{24}$N$_{2}$O$_{17}$P$_{2}$,566.302,g/mol,,,,,,,
JWH-249,C$_{21}$H$_{22}$BrNO,,,,,,,,,
Cyclorphan,C$_{20}$H$_{27}$NO,,,188,$^{\circ}$C,1.19,g/cm$^{3}$,458.4,$^{\circ}$C,
Trans-Resveratrol-3-O-glucuronide,C$_{20}$H$_{20}$O$_{9}$,,,,,,,,,
Tetracarbon dioxide,C$_{4}$O$_{2}$,,,,,,,,,
Silicon tetrachloride,SiCl$_{4}$,169.90,g/mol,-68.74,$^{\circ}$C,1.483,g/cm$^{3}$,57.65,$^{\circ}$C,Reaction
L-733 060,,,,,,,,,,
Tripotassium phosphate,K$_{3}$PO$_{4}$,212.27,g/mol,1380,$^{\circ}$C,2.564,g/cm$^{3}$,,,90
Cinnamoyl-CoA,C$_{30}$H$_{42}$N$_{7}$O$_{17}$P$_{3}$S,897.68,g/mol,,,,,,,
Pinacidil,C$_{13}$H$_{19}$N$_{5}$,,,,,,,,,
SX-3228,C$_{18}$H$_{18}$N$_{4}$O$_{3}$,,,,,,,,,
Trichloro(chloromethyl)silane,CH$_{2}$Cl$_{4}$Si,,,,,,,,,
Scytonemin,C$_{36}$H$_{20}$N$_{2}$O$_{4}$,544.6,g/mol,,,,,,,
Guaifenesin,C$_{10}$H$_{14}$O$_{4}$,,,,,,,,,
Methylenomycin A,C$_{9}$H$_{10}$O$_{4}$,,,,,,,341.2,$^{\circ}$C,
Dimethyl ether,C$_{2}$H$_{6}$O,,,,,,,,,71
Methyltestosterone,C$_{20}$H$_{30}$O$_{2}$,,,,,,,,,
Valine,C$_{5}$H$_{11}$NO$_{2}$,,,298,$^{\circ}$C,1.316,g/cm$^{3}$,,,soluble
Deuterated DMSO,C$_{2}$D$_{6}$OS,84.17,g/mol,20.2,$^{\circ}$C,1.19,g/cm$^{3}$,,,
Ritodrine,C$_{17}$H$_{21}$NO$_{3}$,,,,,,,,,
Trimethylphosphine,C$_{3}$H$_{9}$P,,,-86,$^{\circ}$C,,,38,$^{\circ}$C,
Tert-Butyl bromide,C$_{4}$H$_{9}$Br,,,,,,,,,
UMB66,C$_{3}$H$_{5}$ClO$_{2}$,,,,,,,,,
Dammarane,C$_{30}$H$_{54}$,414.75,g/mol,,,,,,,
Aureusidin,C$_{15}$H$_{10}$O$_{6}$,286.23,g/mol,,,,,,,
Piperazine,C$_{4}$H$_{10}$N$_{2}$,86.136,g/mol,106,$^{\circ}$C,,,,,
Pyridinylpiperazine,C$_{9}$H$_{13}$N$_{3}$,163.22,g/mol,,,,,,,
Phylloquinone,C$_{31}$H$_{46}$O$_{2}$,450.70,g/mol,,,,,,,
Dibromodifluoromethane,CBr$_{2}$F$_{2}$,209.82,g/mol,-101.1,$^{\circ}$C,,,22.8,$^{\circ}$C,Insoluble
Krypton difluoride,KrF$_{2}$,,,,,,,,,Reacts
NE-100,C$_{23}$H$_{33}$NO$_{2}$,,,,,,,,,
Lysergic acid 3-pentyl amide,,,,,,,,,,
Cosmomycin B,C$_{40}$H$_{53}$NO$_{14}$,,,,,,,,,
JWH-164,C$_{25}$H$_{25}$NO$_{2}$,,,,,,,,,
Acetyllysine,C$_{8}$H$_{16}$N$_{2}$O$_{3}$,,,250,$^{\circ}$C,,,442,$^{\circ}$C,
Atamestane,C$_{20}$H$_{26}$O$_{2}$,,,,,,,,,
AMG-36,C$_{27}$H$_{40}$O$_{2}$,,,,,,,,,
Regorafenib,C$_{17}$H$_{19}$N,,,,,,,,,
N-Chlorosuccinimide,C$_{4}$H$_{4}$ClNO$_{2}$,,,148,$^{\circ}$C,1.65,g/cm$^{3}$,,,
Eucalyptol,C$_{10}$H$_{18}$O,154.249,g/mol,1.5,$^{\circ}$C,0.9225,g/cm$^{3}$,176-177,$^{\circ}$C,
Benzylpenicillin,C$_{16}$H$_{25}$NO$_{9}$,,,,,,,,,
Thioacetic acid,C$_{2}$H$_{4}$OS,,,-58,$^{\circ}$C,,,93,$^{\circ}$C,
Bongkrek acid,C$_{28}$H$_{38}$O$_{7}$,,,50-60,$^{\circ}$C,,,,,
L-Arginine ethyl ester,C$_{8}$H$_{18}$N$_{4}$O$_{2}$,,,,,,,,,soluble
Tedalinab,C$_{19}$H$_{21}$F$_{2}$N$_{3}$O,,,,,,,,,
Mercury(II) fulminate,C$_{2}$N$_{2}$O$_{2}$Hg,284.624,g/mol,160,$^{\circ}$C,4.42,g/cm$^{3}$,356.6,$^{\circ}$C,slightly soluble