Name,formula,Property Molar Mass,Property Molar Mass units,Property Melting Point,Property Melting Point units,Property Density,Property Density units,Property Boiling Point,Property Boiling Point units,Property Solubility
Isomaltol,C$_{6}$H$_{6}$O$_{3}$,,,98-103,$^{\circ}$C,,,,,Insoluble
Nabumetone,C$_{15}$H$_{16}$O$_{2}$,,,,,,,,,
Kynurenic acid,C$_{10}$H$_{7}$NO$_{3}$,189.168,g/mol,282.5,$^{\circ}$C,,,,,
Trametinib,C$_{26}$H$_{23}$FIN$_{5}$O$_{4}$,,,,,,,,,
Bromofluoromethane,CH$_{2}$BrF,112.93,g/mol,,,,,19,$^{\circ}$C,
Isoceteth-20,HO(C$_{2}$H$_{4}$O)$_{n}$C$_{16}$H$_{33}$n$\in$20,,,,,,,,,
Zinc oxide,ZnO,81.38,g/mol,1975,$^{\circ}$C,5.606,g/cm$^{3}$,1975,$^{\circ}$C,0.0004% (17.8$^{\circ}$C)
Lixisenatide,C$_{215}$H$_{347}$N$_{61}$O$_{65}$S,,,,,,,,,
Dacemazine,C$_{16}$H$_{16}$N$_{2}$OS,,,,,,,,,
Strontium barium niobate,(Sr$_{x}$Ba$_{1-x}$)Nb$_{2}$O$_{6}$ for 0.32$\leq$x$\leq$0.82,,,1427-1480,$^{\circ}$C,5.24-5.39,g/cm$^{3}$,,,
Corbadrine,C$_{9}$H$_{13}$NO$_{3}$,,,,,,,,,
Aluminium monofluoride,AlF,45.98,g/mol,,,,,,,
Alprenolol,C$_{15}$H$_{23}$NO$_{2}$,,,,,,,,,
Technetium(IV) chloride,TcCl$_{4}$,239.718,g/mol,,,,,300,$^{\circ}$C,
Medrylamine,C$_{18}$H$_{23}$NO$_{2}$,,,,,,,,,
Ombuin,C$_{17}$H$_{14}$O$_{7}$,330.29,g/mol,,,,,,,
Rose bengal,C$_{20}$H$_{4}$Cl$_{4}$I$_{4}$O$_{5}$,973.67,g/mol,,,,,,,
Simeprevir,C$_{38}$H$_{47}$N$_{5}$O$_{7}$S$_{2}$,,,,,,,,,
Rifaximin,C$_{43}$H$_{51}$N$_{3}$O,,,,,,,,,
Anabaseine,C$_{10}$H$_{12}$N$_{2}$,,,,,,,,,
SRT1720,C$_{25}$H$_{23}$N$_{7}$OS,,,,,,,,,
N-Hydroxypiperidine,C$_{5}$H$_{11}$NO,,,39.3,$^{\circ}$C,1.070,g/cm$^{3}$,98.5,$^{\circ}$C,113
Delafloxacin,C$_{18}$H$_{12}$ClF$_{3}$N$_{4}$O$_{4}$,,,,,,,,,
Dansyl chloride,C$_{12}$H$_{12}$ClNO$_{2}$S,,,70,$^{\circ}$C,,,,,
Radium bromide,RaBr$_{2}$,385.782,g/mol,728,$^{\circ}$C,5.79,g/cm$^{3}$,900,$^{\circ}$C,70.6
Desmethoxyyangonin,C$_{14}$H$_{12}$O$_{3}$,,,148,$^{\circ}$C,,,440,$^{\circ}$C,
Octacalcium phosphate,Ca$_{8}$H$_{2}$(PO$_{4}$)$_{6}$.5H$_{2}$O,446.234023,g/mol,,,,,,,
Polydimethylsiloxane,(C$_{2}$H$_{6}$OSi)$_{n}$,,,,,,,,,
Hexazine,N$_{6}$,,,,,,,,,
Naftidrofuryl,C$_{24}$H$_{33}$NO$_{3}$,,,,,,,,,
Tribromometacresol,C$_{7}$H$_{5}$Br$_{3}$O,,,81.5,$^{\circ}$C,,,,,
Beryllium chloride,BeCl$_{2}$,79.9182,g/mol,399,$^{\circ}$C,,,482,$^{\circ}$C,15.1
Styramate,C$_{9}$H$_{11}$NO$_{3}$,,,,,,,,,
Sodium tellurite,Na$_{2}$TeO$_{3}$,221.57774,g/mol,710,$^{\circ}$C,6.245,g/cm$^{3}$,,,soluble
Dimethylzinc,Zn(CH$_{3}$)$_{2}$,95.478,g/mol,-42,$^{\circ}$C,,,46,$^{\circ}$C,
Dimethisterone,C$_{23}$H$_{32}$O$_{2}$,340.50,g/mol,,,,,,,
Selligueain A,C$_{45}$H$_{36}$O$_{15}$,816.75,g/mol,,,,,,,
Cyclopentadienylindium(I),C$_{5}$H$_{5}$In,179.913,g/mol,,,,,,,
Silver cyanide,AgCN,133.8856,g/mol,335,$^{\circ}$C,3.943,g/cm$^{3}$,,,0.000023
HDMP-28,C$_{18}$H$_{21}$NO$_{2}$,,,,,,,,,
Diphenylprolinol,C$_{17}$H$_{19}$NO,,,,,,,,,
Proguanil,C$_{11}$H$_{16}$ClN$_{5}$,,,,,,,,,
Ticagrelor,C$_{23}$H$_{28}$F$_{2}$N$_{6}$O$_{4}$S,,,,,,,,,
Cacotheline,C$_{21}$H$_{21}$N$_{3}$O$_{7}$,427.41,g/mol,,,1.62,g/cm$^{3}$,,,
Palmitoylcarnitine,C$_{23}$H$_{45}$NO$_{4}$,399.608,g/mol,,,,,,,
Mepindolol,C$_{15}$H$_{22}$N$_{2}$O$_{2}$,,,,,,,,,
Sodium hypochlorite,NaClO,74.442,g/mol,18,$^{\circ}$C,1.11,g/cm$^{3}$,101,$^{\circ}$C,29.3
Acepromazine,C$_{19}$H$_{22}$N$_{2}$OS,,,,,,,,,
Quinizarine Green SS,C$_{28}$H$_{22}$N$_{2}$O$_{2}$,,,220-221,$^{\circ}$C,,,,,Insoluble
Lanthionine Ketimine,C$_{6}$H$_{7}$NO$_{4}$S,,,,,,,,,30
Vicriviroc,C$_{28}$H$_{38}$F$_{3}$N$_{5}$O$_{2}$,533.629,g/mol,,,,,,,
Crabtree's catalyst,C$_{31}$H$_{50}$F$_{6}$IrNP$_{2}$,804.9026,g/mol,,,,,,,
Piromidic acid,,,,,,,,,,
RTI-177,C$_{24}$H$_{25}$ClN$_{2}$O,,,,,,,,,
Isocrotonic acid,C$_{4}$H$_{6}$O$_{2}$,,,15,$^{\circ}$C,,,168-169,$^{\circ}$C,
Iron(II) sulfate,FeSO$_{4}$,,,680,$^{\circ}$C,3.65,g/cm$^{3}$,,,Monohydrate:
Laurolactam,C$_{12}$H$_{23}$NO,,,152.5,$^{\circ}$C,,,314.9$\pm$10,$^{\circ}$C,0.03
Saroglitazar,C$_{25}$H$_{29}$NO$_{4}$S,,,,,,,,,
Phenylethylpyrrolidine,C$_{12}$H$_{17}$N,175.27,g/mol,,,,,,,
Dioctyl adipate,C$_{22}$H$_{42}$O$_{4}$,,,-7.48,$^{\circ}$C,,,404.84,$^{\circ}$C,0.78
Cyanogen bromide,CBrN,,,50,$^{\circ}$C,,,61,$^{\circ}$C,Reacts
Pravastatin,C$_{23}$H$_{36}$O$_{7}$,,,,,,,,,
Theophylline,C$_{7}$H$_{8}$N$_{4}$O$_{2}$,,,,,,,,,
APINACA,C$_{23}$H$_{31}$N$_{3}$O,,,,,,,,,
Arsenic trioxide,As$_{2}$O$_{3}$,197.841,g/mol,,,3.74,g/cm$^{3}$,,,
Apamin,C$_{79}$H$_{131}$N$_{31}$O$_{24}$S$_{4}$,2027.33874,g/mol,,,,,,,
Glycobiarsol,C$_{8}$H$_{9}$AsBiNO$_{6}$,,,,,,,,,
Alvocidib,C$_{21}$H$_{20}$ClNO$_{5}$,,,,,,,,,
Benzenediazonium chloride,C$_{6}$H$_{5}$N$_{2}$Cl,,,,,,,,,"very good, hydroscopic"
Aluminium monochloride,AlCl,,,,,,,,,
Ibafloxacin,C$_{15}$H$_{14}$FNO$_{3}$,,,,,,,,,
Deslanoside,C$_{47}$H$_{74}$O$_{19}$,,,,,,,,,
Terbuthylazine,C$_{9}$H$_{16}$ClN$_{5}$,229.710,g/mol,,,,,,,
Hexahydroxy-2 3-naphthalenedione,C$_{10}$H$_{6}$O$_{8}$,254.15,g/mol,,,,,,,
Tin(II) iodide,SnI$_{2}$,372.519,g/mol,320,$^{\circ}$C,,,714,$^{\circ}$C,
Hexyl acetate,C$_{8}$H$_{16}$O$_{2}$,,,-80,$^{\circ}$C,0.8673,g/cm$^{3}$,171.5,$^{\circ}$C,0.4
Escaline,C$_{12}$H$_{19}$NO$_{3}$,225.28,g/mol,165-166,$^{\circ}$C,,,,,
Glutaurine,C$_{7}$H$_{14}$N$_{2}$O$_{6}$S,,,,,,,,,
RWJ-51204,C$_{21}$H$_{19}$F$_{2}$N$_{3}$O$_{3}$,,,,,,,,,
Etanercept,C$_{2224}$H$_{3475}$N$_{621}$O$_{698}$S$_{36}$,,,,,,,,,
Toxoflavin,C$_{7}$H$_{7}$N$_{5}$O$_{2}$,,,172-173,$^{\circ}$C,,,,,
Cadmium iodide,CdI$_{2}$,366.22,g/mol,387,$^{\circ}$C,,,742,$^{\circ}$C,787
Actarit,C$_{9}$H$_{12}$IN,,,,,,,,,
Benzyl alcohol,C$_{7}$H$_{8}$O,,,-15.2,$^{\circ}$C,,,205.3,$^{\circ}$C,3.50
Potassium lactate,C$_{3}$H$_{5}$KO$_{3}$,,,,,,,,,
Dantrolene,C$_{14}$H$_{10}$N$_{4}$O$_{5}$,,,,,,,,,
Alpha-Ethyltryptamine,C$_{12}$H$_{16}$N$_{2}$,,,222,$^{\circ}$C,,,,,
Toluene diisocyanate,C$_{9}$H$_{6}$N$_{2}$O$_{2}$,174.2,g/mol,21.8,$^{\circ}$C,,,251,$^{\circ}$C,Reacts
Chlorphenamine,C$_{16}$H$_{19}$ClN$_{2}$,,,,,,,,,
Wieland-Miescher ketone,C$_{11}$H$_{14}$O$_{2}$,178.23,g/mol,47-50,$^{\circ}$C,,,,,
Calcein,C$_{30}$H$_{26}$N$_{2}$O$_{13}$,622.55,g/mol,,,,,,,
Styrene oxide,C$_{8}$H$_{8}$O,,,-37,$^{\circ}$C,,,194,$^{\circ}$C,
Amitriptyline,C$_{20}$H$_{23}$N,,,,,,,,,
Propanidid,C$_{18}$H$_{27}$NO$_{5}$,,,,,,,,,
Norcarane,C$_{7}$H$_{12}$,,,,,,,116-117,$^{\circ}$C,
Clotiapine,C$_{18}$H$_{18}$ClN$_{3}$S,,,,,,,,,
Triazavirin,C$_{5}$H$_{4}$N$_{6}$O$_{3}$S,,,,,,,,,
Dyclonine,C$_{18}$H$_{27}$NO$_{2}$,,,,,,,,,
Tris,C$_{4}$H$_{11}$NO$_{3}$,,,,,,,219,$^{\circ}$C,~50
Bevonium,C22H28NO3charge+,,,,,,,,,
Ethylone,C$_{12}$H$_{15}$NO$_{3}$,,,,,,,,,
Uroguanylin,C$_{61}$H$_{101}$N$_{17}$O$_{25}$S$_{4}$,,,,,,,,,
Carbon pentoxide,CO$_{5}$,92.01,g/mol,,,,,,,
Promestriene,C$_{22}$H$_{32}$O$_{2}$,,,,,,,,,
Feprosidnine,C$_{11}$H$_{13}$N$_{3}$O,,,,,,,,,
Olaflur,C$_{27}$H$_{60}$F$_{2}$N$_{2}$O$_{3}$,,,,,,,,,
Selfotel,C$_{7}$H$_{14}$NO$_{5}$P,,,,,,,,,
Lapachol,C$_{15}$H$_{14}$O$_{3}$,,,140,$^{\circ}$C,,,,,
Felbamate,C$_{11}$H$_{14}$N$_{2}$O$_{4}$,,,,,,,,,
Epimestrol,C$_{19}$H$_{26}$O$_{3}$,,,,,,,,,
Hypericin,C$_{30}$H$_{16}$O$_{8}$,,,,,,,,,
Tiratricol,C$_{14}$H$_{9}$I$_{3}$O$_{4}$,,,,,,,,,
Coniferyl alcohol,C$_{10}$H$_{12}$O$_{3}$,,,74,$^{\circ}$C,,,163-165,$^{\circ}$C,
Inotodiol,C$_{30}$H$_{50}$O$_{2}$,,,,,,,,,
Hexafluoro-2-propanol,C$_{3}$H$_{2}$F$_{6}$O,,,-3.3,$^{\circ}$C,,,58.2,$^{\circ}$C,Miscible
Hydrogen iodide,HI,127.904,g/mol,-50.80,$^{\circ}$C,,,-35.36,$^{\circ}$C,approximately 245
Triphenylborane,C$_{18}$H$_{15}$B,242.12,g/mol,142,$^{\circ}$C,,,203,$^{\circ}$C,Insoluble
Floctafenine,C$_{20}$H$_{17}$F$_{3}$N$_{2}$O$_{4}$,,,,,,,,,
Phenoperidine,C$_{23}$H$_{29}$NO$_{3}$,,,,,,,,,
Emapunil,C$_{23}$H$_{23}$N$_{5}$O$_{2}$,,,,,,,,,
Valrubicin,C$_{34}$H$_{36}$F$_{3}$NO$_{13}$,,,,,,,,,
CI-988,C$_{35}$H$_{42}$N$_{4}$O$_{6}$,,,,,,,,,
Dichlorotetrakis(dimethylsulfoxide)ruthenium(II),C$_{8}$H$_{24}$Cl$_{2}$O$_{4}$RuS$_{4}$,484.51,g/mol,,,,,,,water miscible
Sodium phenoxide,C$_{6}$H$_{5}$NaO,116.09,g/mol,,,,,,,
Methylamine,CH$_{5}$N,,,,,,,,,1.08
Divinylbenzene,C$_{10}$H$_{10}$,,,-66.9--52,$^{\circ}$C,,,,,0.005% (20$^{\circ}$C)
Dicalcium phosphate,CaHPO$_{4}$,136.06,g/mol,,,2.929,g/cm$^{3}$,,,0.02
Secoisolariciresinol,C$_{20}$H$_{26}$O$_{6}$,,,,,,,,,
Anagliptin,C$_{19}$H$_{25}$N$_{7}$O$_{2}$,,,,,,,,,
RDS-127,C$_{17}$H$_{27}$NO$_{2}$,,,,,,,,,
Cartazolate,C$_{15}$H$_{22}$N$_{4}$O$_{2}$,,,,,,,,,
Methylisopropyltryptamine,C$_{14}$H$_{20}$N$_{2}$,,,,,,,,,
Isoxanthohumol,C$_{21}$H$_{22}$O$_{5}$,354.39,g/mol,,,,,,,
Octadecene,C$_{18}$H$_{36}$,,,14-16,$^{\circ}$C,,,315,$^{\circ}$C,Insoluble
Ammonium perfluorononanoate,C$_{9}$H$_{4}$F$_{17}$NO$_{2}$,,,,,,,196,$^{\circ}$C,
Ofloxacin,C$_{18}$H$_{20}$FN$_{3}$O$_{4}$,,,,,,,,,
Cyprodime,C$_{22}$H$_{29}$NO$_{3}$,,,,,,,,,
Plutonium tetrafluoride,PuF$_{4}$,320,g/mol,1027,$^{\circ}$C,7.1,g/cm$^{3}$,,,
Allura Red AC,C$_{18}$H$_{14}$N$_{2}$Na$_{2}$O$_{8}$S$_{2}$,,,,,,,,,
Zirconium(IV) hydroxide,Zr(OH)$_{4}$,159.253,g/mol,550,$^{\circ}$C,,,,,0.02
GW-803 430,,,,,,,,,,
Selexipag,C$_{26}$H$_{32}$N$_{4}$O$_{4}$S,,,,,,,,,
Candicidin,C$_{59}$H$_{84}$N$_{2}$O$_{18}$,,,,,,,,,
Tetrazolylglycine,C$_{3}$H$_{5}$N$_{5}$O$_{2}$,,,,,,,,,
Bencyclane,C$_{19}$H$_{31}$NO,,,,,,,,,
Chromotropic acid,C$_{10}$H$_{8}$O$_{8}$S$_{2}$,320.30,g/mol,,,,,,,
Propene,C$_{3}$H$_{6}$,,,-185.2,$^{\circ}$C,,,-47.6,$^{\circ}$C,0.61
Trichloronate,C$_{10}$H$_{12}$Cl$_{3}$O$_{2}$PS,,,,,,,,,
Tranilast,C$_{18}$H$_{17}$NO$_{5}$,,,,,,,,,
Butamben,C$_{11}$H$_{15}$NO$_{2}$,,,58,$^{\circ}$C,,,,,
Tosyl phenylalanyl chloromethyl ketone,C$_{17}$H$_{18}$ClNO$_{3}$S,351.848,g/mol,,,,,,,
DCMU,C$_{9}$H$_{10}$Cl$_{2}$N$_{2}$O,,,158,$^{\circ}$C,1.48,g/cm$^{3}$,180,$^{\circ}$C,42
Cyanogen,C$_{2}$N$_{2}$,,,-28,$^{\circ}$C,,,,,45
Octriptyline,C$_{20}$H$_{21}$N,,,,,,,,,
Neopterin,C$_{9}$H$_{11}$N$_{5}$O$_{4}$,253.215,g/mol,,,,,,,
Hypolaetin,C$_{15}$H$_{10}$O$_{7}$,302.23,g/mol,,,,,,,
Agaritine,C$_{12}$H$_{17}$N$_{3}$O$_{4}$,,,203,$^{\circ}$C,,,,,
SIMes,C$_{21}$H$_{26}$N$_{2}$,,,79,$^{\circ}$C,,,,,
Indometacin,C$_{19}$H$_{16}$ClNO$_{4}$,,,,,,,,,
PEAQX,C$_{17}$H$_{17}$BrN$_{3}$O$_{5}$P,,,,,,,,,
Nefiracetam,C$_{14}$H$_{18}$N$_{2}$O$_{2}$,,,,,,,,,
Cyclohexylamine,C$_{6}$H$_{13}$N,,,-17.7,$^{\circ}$C,0.8647,g/cm$^{3}$,134.5,$^{\circ}$C,Miscible
Cyclopentane,C$_{5}$H$_{10}$,70.1,g/mol,-93.9,$^{\circ}$C,0.751,g/cm$^{3}$,49.2,$^{\circ}$C,156
Miroprofen,C$_{16}$H$_{14}$N$_{2}$O$_{2}$,,,,,,,,,
Eclanamine,C$_{16}$H$_{22}$Cl$_{2}$N$_{2}$O,,,,,,,,,
Beta-Hydroxy $\beta$-methylbutyric acid,C$_{5}$H$_{10}$O$_{3}$,118.131,g/mol,-80,$^{\circ}$C,,,88,$^{\circ}$C,
Gallocatechin gallate,C$_{22}$H$_{18}$O,458.372,g/mol,,,,,,,
Dimethylbutadiene,C$_{6}$H$_{10}$,,,-76,$^{\circ}$C,,,69,$^{\circ}$C,
Silver bromate,AgBrO$_{3}$,235.770,g/mol,309,$^{\circ}$C,5.206,g/cm$^{3}$,,,
Nitrosyl chloride,NOCl,,,-59.4,$^{\circ}$C,,,-5.55,$^{\circ}$C,Reacts
Sodium bicarbonate,NaHCO$_{3}$,,,50,$^{\circ}$C,2.20,g/cm$^{3}$,,,9
Disulfuric acid,H$_{2}$O$_{7}$S$_{2}$,,,36,$^{\circ}$C,,,,,
Pentorex,C$_{11}$H$_{17}$N,,,,,,,,,
S1RA,C$_{20}$H$_{23}$N$_{3}$O$_{2}$,,,,,,,,,
Pagoclone,C$_{23}$H$_{22}$ClN$_{3}$O$_{2}$,,,,,,,,,
Titanium(III) chloride,TiCl$_{3}$,154.225,g/mol,425,$^{\circ}$C,2.64,g/cm$^{3}$,960,$^{\circ}$C,very soluble
Gnetucleistol D,C$_{15}$H$_{14}$O$_{4}$,258.27,g/mol,,,,,,,
Cobalt(II) acetate,Co(C$_{2}$H$_{3}$O$_{2}$)$_{2}$,177.02124,g/mol,140,$^{\circ}$C,1.705,g/cm$^{3}$,,,Soluble
Ethyltrifluoromethylaminoindane,C$_{12}$H$_{14}$F$_{3}$N,,,,,,,,,
Pimelic acid,C$_{7}$H$_{12}$O$_{4}$,160.17,g/mol,103-105,$^{\circ}$C,1.28,g/cm$^{3}$,,,
Deuterated THF,C$_{42}$H$_{8}$O,,,-106,$^{\circ}$C,,,65,$^{\circ}$C,
Acetylacetone,C$_{5}$H$_{8}$O$_{2}$,,,-23,$^{\circ}$C,,,140,$^{\circ}$C,
Cilastatin,C$_{16}$H$_{26}$N$_{2}$O$_{5}$S,,,,,,,,,
Sinapinic acid,C$_{11}$H$_{12}$O$_{5}$,224.21,g/mol,203-205,$^{\circ}$C,,,,,
Titanium disulfide,TiS$_{2}$,111.997,g/mol,,,,,,,insoluble
SKF-83 959,,,,,,,,,,
Dihydrouridine,C$_{9}$H$_{14}$N$_{2}$O$_{6}$,246.217,g/mol,,,,,,,
Barium acetate,C$_{4}$H$_{6}$BaO$_{4}$,,,725,$^{\circ}$C,2.468,g/cm$^{3}$,,,55.8
Abietane,C$_{20}$H$_{36}$,,,338,$^{\circ}$C,,,,,
Atiprimod,C$_{22}$H$_{44}$N$_{2}$,,,,,,,,,
Diisopropyl azodicarboxylate,C$_{8}$H$_{14}$N$_{2}$O$_{4}$,,,3-5,$^{\circ}$C,1.027,g/cm$^{3}$,75,$^{\circ}$C,insoluble
Triethyl orthoformate,C$_{7}$H$_{16}$O$_{3}$,,,-76,$^{\circ}$C,,,146,$^{\circ}$C,
N N-Dimethyltryptamine,,,,40,$^{\circ}$C,1.099,g/cm$^{3}$,160,$^{\circ}$C,
Sulfate,SO$^{2-}_{4}$,,,,,,,,,
Coelogin,C$_{17}$H$_{16}$O$_{5}$,300.30,g/mol,,,,,,,
Rituximab,C$_{6416}$H$_{9874}$N$_{1688}$O$_{1987}$S$_{44}$,,,,,,,,,
Ethinamate,C$_{9}$H$_{13}$NO$_{2}$,,,,,,,,,
Phenyl azide,C$_{6}$H$_{5}$N$_{3}$,,,,,,,,,
Phoxim,C$_{12}$H$_{15}$N$_{2}$O$_{3}$PS,,,6.1,$^{\circ}$C,1.17,g/cm$^{3}$,,,7
Sodium fluorosilicate,F$_{6}$Na$_{2}$Si,,,,,2.7,g/cm$^{3}$,,,0.64
Nandrolone,C$_{18}$H$_{26}$O$_{2}$,,,,,,,,,
Diphenidine,C$_{19}$H$_{23}$N,,,210,$^{\circ}$C,,,,,
Cyclazocine,C$_{18}$H$_{25}$NO,,,,,,,,,
Diatomic carbon,C$_{2}$,,,,,,,,,
Butylone,C$_{12}$H$_{15}$NO$_{3}$,,,,,,,,,
Adenine,C$_{5}$H$_{5}$N$_{5}$,135.13,g/mol,360,$^{\circ}$C,1.6,g/cm$^{3}$,,,0.103
DPI-3290,C$_{30}$H$_{34}$FN$_{3}$O$_{2}$,,,,,,,,,
PRO-LAD,C$_{22}$H$_{29}$N$_{3}$O,,,,,,,,,
Epsilon-Viniferin,C$_{28}$H$_{22}$O$_{6}$,454.47,g/mol,,,,,,,
Bromantane,C$_{16}$H$_{20}$BrN,,,,,,,,,
Methylhomatropine,C$_{17}$H$_{24}$BrNO$_{3}$,,,,,,,,,
Geraniol,C$_{10}$H$_{18}$O,,,-15,$^{\circ}$C,0.889,g/cm$^{3}$,230,$^{\circ}$C,686
Dimetridazole,C$_{5}$H$_{7}$N$_{3}$O$_{2}$,,,,,,,,,
Maraviroc,C$_{29}$H$_{41}$F$_{2}$N$_{5}$O,,,,,,,,,
Phosphoribosyl pyrophosphate,C$_{5}$H$_{13}$O$_{14}$P$_{3}$,390.07,g/mol,,,,,,,
GelGreen,C$_{56}$H$_{80}$I$_{2}$N$_{8}$O$_{5}$,1198.43,g/mol,,,,,,,
Ceruletide,C$_{58}$H$_{73}$N$_{13}$O$_{21}$S$_{2}$,,,,,,,,,
Acetaldoxime,C$_{2}$H$_{5}$NO,,,25,$^{\circ}$C,,,115.24,$^{\circ}$C,299
Propargite,C$_{19}$H$_{26}$O$_{4}$S,,,,,1.10,g/cm$^{3}$,,,0.5
Proglumide,C$_{18}$H$_{26}$N$_{2}$O$_{4}$,,,,,,,,,
Mercury(II) iodide,HgI$_{2}$,454.40,g/mol,259,$^{\circ}$C,6.36,g/cm$^{3}$,350,$^{\circ}$C,0.006
Luliconazole,C$_{14}$H$_{9}$Cl$_{2}$N$_{3}$S$_{2}$,,,,,,,,,
Sterubin,C$_{16}$H$_{14}$O$_{6}$,302.28,g/mol,,,,,,,
Glycidyl methacrylate,C$_{7}$H$_{10}$O$_{3}$,142.1546,g/mol,,,1.07,g/cm$^{3}$,189.0,$^{\circ}$C,
LBP-1 (drug),,,,,,,,,,
Lithium hydroxide,LiOH,23.95,g/mol,462,$^{\circ}$C,1.46,g/cm$^{3}$,924,$^{\circ}$C,12.7
Ammonium benzoate,C$_{7}$H$_{9}$NO$_{2}$,139.15,g/mol,198,$^{\circ}$C,1.26,g/cm$^{3}$,,,21.3
Norbornadiene,C$_{7}$H$_{8}$,92.14,g/mol,-19,$^{\circ}$C,0.906,g/cm$^{3}$,89,$^{\circ}$C,Insoluble
Titanic acid,TiH$_{4}$O$_{4}$,,,,,,,,,
Gold(III) hydroxide,AuH$_{3}$O$_{3}$,,,,,,,,,
Hagemann's ester,C$_{10}$H$_{14}$O$_{3}$,,,,,,,268-272,$^{\circ}$C,
MC21-B,C$_{14}$H$_{7}$Br$_{3}$O$_{4}$,,,,,,,,,"Sol. MeOH, CHCl$_{3}$"
Denufosol,C$_{18}$H$_{27}$N$_{5}$O$_{21}$P$_{4}$,,,,,,,,,
Eupatolin,C$_{23}$H$_{24}$O$_{12}$,492.42,g/mol,,,,,,,
Prodelphinidin B3,C$_{30}$H$_{26}$O$_{13}$,594.52,g/mol,,,,,,,
Iron(II) molybdate,FeMoO$_{4}$,215.78,g/mol,1115,$^{\circ}$C,5.6,g/cm$^{3}$,,,0.00766
Methyl isothiocyanate,C$_{2}$H$_{3}$NS,,,31,$^{\circ}$C,,,117,$^{\circ}$C,8.2g/L
AM-855,C$_{26}$H$_{38}$O$_{2}$,,,,,,,,,
Etorphine,C$_{25}$H$_{33}$NO$_{4}$,,,,,,,,,
Ammonium dinitramide,H$_{4}$N$_{4}$O$_{4}$,124.06,g/mol,93,$^{\circ}$C,1.81,g/cm$^{3}$,,,
Nonylphenol,C$_{15}$H$_{24}$O,220.35,g/mol,-8-2,$^{\circ}$C,,,293-297,$^{\circ}$C,6
Lead(II) fluoride,PbF$_{2}$,245.20,g/mol,824,$^{\circ}$C,8.445,g/cm$^{3}$,1293,$^{\circ}$C,0.057
Potassium selenocyanate,CNKSe,,,,,2.35,g/cm$^{3}$,,,high
Prostanozol,C$_{25}$H$_{38}$N$_{2}$O$_{2}$,,,,,,,,,
Oxyphenonium bromide,,,,,,,,,,
Rogletimide,C$_{12}$H$_{14}$N$_{2}$O$_{2}$,,,,,,,,,
Bismuth pentafluoride,BiF$_{5}$,,,151.4,$^{\circ}$C,,,230,$^{\circ}$C,
Acarbose,C$_{25}$H$_{43}$NO$_{18}$,,,,,,,,,
Woollins' reagent,C$_{12}$H$_{10}$P$_{2}$Se$_{4}$,,,192-204,$^{\circ}$C,,,,,soluble in toluene at elevated temperatures
Nitrocyclohexane,C$_{6}$H$_{11}$NO$_{2}$,,,-34,$^{\circ}$C,1.061,g/cm$^{3}$,205.8,$^{\circ}$C,
Tetraphenylcyclopentadienone,C$_{29}$H$_{20}$O,,,219-220,$^{\circ}$C,,,,,
Nimorazole,C$_{9}$H$_{14}$N$_{4}$O$_{3}$,,,,,,,,,
Aceburic acid,,,,,,,,,,
Lithium hypochlorite,LiClO,58.39,g/mol,135,$^{\circ}$C,0.531,g/cm$^{3}$,1336,$^{\circ}$C,soluble
Potassium ethoxide,C$_{2}$H$_{5}$OK,,,250,$^{\circ}$C,,,,,Reacts
Letermovir,C$_{29}$H$_{28}$F$_{4}$N$_{4}$O$_{4}$,,,,,,,,,
Epsilon-Amanitin,C$_{39}$H$_{53}$N$_{9}$O$_{14}$S,903.96,g/mol,,,,,,,Soluble
Raltegravir,C$_{20}$H$_{21}$FN$_{6}$O$_{5}$,,,,,,,,,
Mallojaponin,C$_{54}$H$_{38}$O$_{37}$,1278.86,g/mol,,,,,,,
Fluroxypyr,C$_{7}$H$_{5}$Cl$_{2}$FN$_{2}$O$_{3}$,,,232,$^{\circ}$C,1.09,g/cm$^{3}$,,,91
Mecloqualone,C$_{15}$H$_{11}$ClN$_{2}$O,,,,,,,,,
Acetoxyketobemidone,C$_{17}$H$_{23}$NO$_{3}$,,,,,,,,,
Molybdenum diselenide,MoSe$_{2}$,253.86,g/mol,,,6.980,g/cm$^{3}$,,,
Sodium aurothiosulfate,,,,,,,,,,
Amlexanox,C$_{16}$H$_{14}$N$_{2}$O$_{4}$,,,,,,,,,
Dopexamine,C$_{22}$H$_{32}$N$_{2}$O$_{2}$,,,,,,,,,
Fidaxomicin,C$_{52}$H$_{74}$Cl$_{2}$O$_{18}$,,,,,,,,,
Tungsten(VI) oxytetrabromide,WOBr$_{4}$,519.46,g/mol,277,$^{\circ}$C,5.5,g/cm$^{3}$,327,$^{\circ}$C,reacts
Mexiletine,C$_{11}$H$_{17}$NO,,,,,,,,,
Sorbinil,C$_{11}$H$_{9}$FN$_{2}$O$_{3}$,,,,,,,,,
Nudol,C$_{16}$H$_{14}$O$_{4}$,270.28,g/mol,,,,,,,
Asparagusic acid,C$_{4}$H$_{6}$O$_{2}$S$_{2}$,,,75.7-76.5,$^{\circ}$C,,,,,
Wurster's blue,C$_{10}$H$_{16}$N$_{2}$,164.25,g/mol,51,$^{\circ}$C,,,260,$^{\circ}$C,slightly in cold water more so in hot water
Mycobacillin,C$_{65}$H$_{85}$N$_{13}$O$_{30}$,1528.44,g/mol,235-240,$^{\circ}$C,,,,,
Fosazepam,C$_{18}$H$_{18}$ClN$_{2}$O$_{2}$P,,,,,,,,,
Methylphosphonic acid,CH$_{5}$O$_{3}$P,,,105-107,$^{\circ}$C,,,,,
PD-168 077,,,,,,,,,,
Ammonium hexachloroiridate,H$_{8}$N$_{2}$Cl$_{6}$Ir,,,,,,,,,
Icodextrin,chemical_formula(C$_{6}$H$_{10}$O$_{5}$)$_{n}$,,,,,,,,,
Trifucol,C$_{18}$H$_{14}$O$_{9}$,374.29,g/mol,,,,,,,
Sulfaquinoxaline,C$_{14}$H$_{12}$N$_{4}$O$_{2}$S,300.366,g/mol,247.5,$^{\circ}$C,,,,,slightly soluble in water
Metildigoxin,C$_{42}$H$_{66}$O$_{14}$,,,,,,,,,
Potassium octachlorodimolybdate,H$_{4}$Cl$_{8}$K$_{4}$Mo$_{2}$O$_{2}$,631.9,g/mol,,,2.54,g/cm$^{3}$,,,soluble
Entinostat,C$_{21}$H$_{20}$N$_{4}$O$_{3}$,,,,,,,,,
Tolonium chloride,C$_{15}$H$_{16}$N$_{3}$S$^{+}$,270.374,g/mol,,,,,,,
Copper(I) bromide,CuBr,143.45,g/mol,492,$^{\circ}$C,,,1345,$^{\circ}$C,slightly soluble
Alifedrine,C$_{18}$H$_{27}$NO$_{2}$,,,,,,,,,
Moexipril,C$_{27}$H$_{34}$N$_{2}$O$_{7}$,,,,,,,,,
Ethylmercury,C$_{2}$H$_{5}$Hg$^{+}$,229.65,g/mol,,,,,,,
Loviride,C$_{17}$H$_{16}$Cl$_{2}$N$_{2}$O$_{2}$,,,,,,,,,
Molindone,C$_{16}$H$_{24}$N$_{2}$O$_{2}$,,,,,,,,,
Meladrazine,C$_{11}$H$_{23}$N$_{7}$,,,,,,,,,
Thiothixene,C$_{23}$H$_{29}$N$_{3}$O$_{2}$S$_{2}$,,,,,,,,,
WAY-267 464,,,,,,,,,,
Aluminium nitrate,Al(NO$_{3}$)$_{3}$,212.996,g/mol,66,$^{\circ}$C,1.72,g/cm$^{3}$,150,$^{\circ}$C,anhydrous:   60.0
Heptane,C$_{7}$H$_{16}$,,,,,,,,,0.0003% (20$^{\circ}$C)
Methyl radical,CH$_{3}$,,,,,,,,,
Wikipedia:WikiProject Medicine/Translation task force/RTT/Simple Cefalexin,,,,,,,,,,
Formyl fluoride,CHFO,48.02,g/mol,-142,$^{\circ}$C,,,-29,$^{\circ}$C,
Triphos,C$_{41}$H$_{39}$P$_{3}$,624.67,g/mol,99-102,$^{\circ}$C,,,,,Insoluble
Sulfafurazole,C$_{11}$H$_{13}$N$_{3}$O$_{3}$S,,,,,,,,,
Pentylamine,C$_{5}$H$_{13}$N,,,,,,,,,Miscible
SHA-68,C$_{26}$H$_{24}$FN$_{3}$O$_{3}$,,,,,,,,,
Dihydroetorphine,C$_{25}$H$_{35}$NO$_{4}$,,,,,,,,,
Diethyl sulfate,C$_{4}$H$_{10}$O$_{4}$S,,,-25,$^{\circ}$C,,,209,$^{\circ}$C,0.7
Dibromotyrosine,C$_{9}$H$_{9}$Br$_{2}$NO$_{3}$,,,,,,,,,
Mirogabalin,C$_{12}$H$_{19}$NO$_{2}$,,,,,,,,,
Glycerol phenylbutyrate,,,,,,,,,,
Asarone,C$_{12}$H$_{16}$O$_{3}$,,,62-63,$^{\circ}$C,,,296,$^{\circ}$C,insoluble
Enfuvirtide,C$_{204}$H$_{301}$N$_{51}$O$_{64}$,,,,,,,,,
Dihydro-resveratrol,C$_{14}$H$_{14}$O$_{3}$,230.26,g/mol,,,,,,,
Eptapirone,C$_{16}$H$_{23}$N$_{7}$O$_{2}$,,,,,,,,,
Clinafloxacin,C$_{17}$H$_{17}$ClFN$_{3}$O$_{3}$,,,,,,,,,
Properties of water,H$_{2}$O,18.01528(33),g/mol,0.00,$^{\circ}$C,,,100,$^{\circ}$C,
Anilazine,C$_{9}$H$_{5}$Cl$_{3}$N$_{4}$,,,,,1.611,g/cm$^{3}$,,,
Bromopyruvic acid,C$_{3}$H$_{3}$BrO$_{3}$,,,79-82,$^{\circ}$C,,,,,
Gossypetin,C$_{15}$H$_{10}$O$_{8}$,318.23,g/mol,,,,,,,