Property Melting Point,Property Density,Property Boiling Point,Property Solubility,Property Molar Mass,Name,formula
,,,,,Ammonium ferric citrate,C$_{6}$H$_{5+4y}$Fe$_{x}$N$_{y}$O$_{7}$
203-205,,146,in water,164.246,Jasmone,C$_{11}$H$_{16}$O
2350,7.4,,Negligible,351.926,Europium(III) oxide,Eu$_{2}$O$_{3}$
,,,,,PF-03654746,C$_{18}$H$_{24}$F$_{2}$N$_{2}$O
6.1,0.948,193.5,,152.23,Fenchone,C$_{10}$H$_{16}$O
140,,,soluble,132.16,Ornithine,C$_{5}$H$_{12}$N$_{2}$O$_{2}$
152-155,,,Practically insoluble,182.22,Fluorenol,C$_{13}$H$_{10}$O
,,,,,GTS-21,C$_{19}$H$_{20}$N$_{2}$O$_{2}$
,,,,,Oxaceprol,C$_{7}$H$_{11}$NO$_{4}$
,,,,,Etamsylate,C$_{10}$H$_{17}$NO$_{5}$S
315,2.056,,,81.1151,Potassium cyanate,KOCN
,,,,,Rafivirumab,C$_{6462}$H$_{9954}$N$_{1718}$O$_{2036}$S$_{46}$
,4.68,,,266.73,Sodium stannate,H$_{6}$Na$_{2}$O$_{6}$Sn
,,,,270.27,Medicarpin,C$_{16}$H$_{14}$O$_{4}$
,,,,307.38,Buflomedil,C$_{17}$H$_{25}$NO$_{4}$
,,,,,Fluorenylidene,C$_{13}$H$_{8}$
,,,,,QUPIC,C$_{23}$H$_{22}$N$_{2}$O$_{2}$
,,,,,Levofloxacin,C$_{18}$H$_{20}$FN$_{3}$O$_{4}$
,,,,,CP-132 484,
,,53.4,,159.93,Fluoroiodomethane,CH$_{2}$FI
,,,,,Dronedarone,C$_{31}$H$_{44}$N$_{2}$O$_{5}$S
,,,,,Scilliroside,C$_{32}$H$_{44}$O$_{12}$
-27,1.017,219-221,,122.16,Phenethyl alcohol,C$_{8}$H$_{10}$O
,,,,,O-2113,C$_{25}$H$_{39}$NO$_{4}$S
,,,,,Glyclopyramide,C$_{11}$H$_{14}$ClN$_{3}$O$_{3}$S
,,,,,Clopimozide,C$_{28}$H$_{28}$ClF$_{2}$N$_{3}$O
< 25,,,,,Distearyldimethylammonium chloride,C$_{38}$H$_{80}$NCl
,,,,,Amibegron,C$_{22}$H$_{26}$ClNO$_{4}$
,,,,,Rubicordifolin,C$_{33}$H$_{28}$O$_{9}$
-60,,158,,222.3,Isophorone diisocyanate,C$_{12}$H$_{18}$N$_{2}$O$_{2}$
206-208,,,2.7% at 15,,Aceturic acid,C$_{4}$H$_{7}$NO$_{3}$
,,,,,Quilizumab,C$_{6492}$H$_{10046}$N$_{1728}$O$_{2023}$S$_{44}$
,6.34,,,192.99,Zinc telluride,ZnTe
,,,,,PSB-SB-487,C$_{26}$H$_{32}$O$_{4}$
,,,,318.45,Oxymesterone,C$_{20}$H$_{30}$O$_{3}$
2335,8.347,,insoluble,348.72,Samarium(III) oxide,Sm$_{2}$O$_{3}$
,,,,,Renzapride,C$_{16}$H$_{22}$ClN$_{3}$O$_{2}$
247,3.95,623,83.9,189.6,Tin(II) chloride,SnCl$_{2}$
,,,,,Azlocillin,C$_{20}$H$_{23}$N$_{5}$O$_{6}$S
148-150,1.052,360,1.8,386.65,Cholesterol,C$_{27}$H$_{46}$O
79,1.159,221.2,,,Acetamide,C$_{2}$H$_{5}$NO
,,,,,Paricalcitol,C$_{27}$H$_{44}$O$_{3}$
,,,,,Teclozan,C$_{20}$H$_{28}$Cl$_{4}$N$_{2}$O$_{4}$
,,,negligible,586.92,Zirconium tungstate,Zr(WO$_{4}$)$_{2}$
,,,,252.38,Simonellite,C$_{19}$H$_{24}$
234,1.543,438,2.94,,Asparagine,C$_{4}$H$_{8}$N$_{2}$O$_{3}$
> 600,5.32,,,432.71,Chromium(III) iodide,CrI$_{3}$
,,,,454.47,Delta-Viniferin,C$_{28}$H$_{22}$O$_{6}$
,,,,,Procainamide,C$_{13}$H$_{21}$N$_{3}$O
,,,,229.125,Phosphoribosylamine,C$_{5}$H$_{12}$NO$_{7}$P
185,,,24.8,152.07,Ammonium chromate,N$_{2}$H$_{8}$CrO$_{4}$
340,2.39,360,exothermic hydrolysis,,Phosphorus pentoxide,P$_{4}$O$_{10}$
,,,,286.23,Thunberginol B,C$_{15}$H$_{10}$O$_{6}$
,,,,870.97,Proamanullin,C$_{39}$H$_{54}$N$_{10}$O$_{11}$S
,,210,17.03$\pm$0.72,,Decamethylcyclopentasiloxane,C$_{10}$H$_{30}$O$_{5}$Si$_{5}$
,,,,332.39,Rosiridin,C$_{16}$H$_{28}$O$_{7}$
,,563.4,,236.224,N'-Formylkynurenine,C$_{11}$H$_{12}$N$_{2}$O$_{4}$
-30,1.1278,239,Almost insoluble,,Cyclosarin,C$_{7}$H$_{14}$FO$_{2}$P
225,,,,,Azodicarbonamide,C$_{2}$H$_{4}$O$_{2}$N$_{4}$
,,,,,Volinanserin,C$_{22}$H$_{28}$FNO$_{3}$
,,,,660.757,Coproporphyrinogen I,C$_{36}$H$_{44}$N$_{4}$O$_{8}$
,,,,,RTI-171,C$_{19}$H$_{24}$N$_{2}$O
-33.4,1.146,162,37,,Beta-Propiolactone,C$_{3}$H$_{4}$O$_{2}$
,1.397,,,,Naphthanthrone,C$_{19}$H$_{10}$O
327.4,5.28,1740,,,Lead(II) oxalate,PbC$_{2}$O$_{4}$
,,371.1,,,Xanthoxin,C$_{15}$H$_{22}$O$_{3}$
725,6.14,,,200.21,Germanium telluride,GeTe
,,,,,Sphingosine-1-phosphate,C$_{18}$H$_{38}$NO$_{5}$P
<-20,,290,,234.4,Tetramethyl acetyloctahydronaphthalenes,C$_{16}$H$_{26}$O
-108.4,,66,Miscible,,Tetrahydrofuran,C$_{4}$H$_{8}$O
,,,,,Tolciclate,C$_{20}$H$_{21}$NOS
179,,293.959,,112.08,Cellocidin,C$_{20}$H$_{24}$O$_{6}$
,,,,,Scopolamine,C$_{17}$H$_{21}$NO$_{4}$
,,,,,Eupalitin,C$_{17}$H$_{14}$O$_{7}$
210-218,,,slightly soluble,,Kopexil,C$_{4}$H$_{6}$N$_{4}$O
215,,,,,Kainic acid,C$_{10}$H$_{15}$NO$_{4}$
,,,,,Abacavir,C$_{14}$H$_{18}$N$_{6}$O
,,,,,Androstenol,C$_{19}$H$_{30}$O
,,,,299.22,DEPBT,C$_{11}$H$_{14}$N$_{3}$O$_{5}$P
,,,,278.4296,Pinolenic acid,C$_{18}$H$_{30}$O$_{2}$
181-185,,,,462.4,Azalein,C$_{22}$H$_{22}$O$_{11}$
,,,,,Tetramethylbutane,C$_{8}$H$_{18}$
149-154,,,,112.17,Endo-Norborneol,C$_{7}$H$_{12}$O
,,,,446.33,Uranocene,C$_{16}$H$_{16}$U
-99.6,,-49,,,Thionyl tetrafluoride,SOF$_{4}$
,,,,,Isopropamide,C$_{23}$H$_{33}$N$_{2}$O$^{+}$
,,,,237.852,Calcium borate,C$_{40}$H$_{56}$
,,,,1206.88,Acutissimin A,C$_{56}$H$_{38}$O$_{31}$
161,,,,,Benzbromarone,C$_{17}$H$_{12}$Br$_{2}$O$_{3}$
,,,,,Arsole,C$_{4}$H$_{4}$AsH
,,,,,Isobromindione,C$_{15}$H$_{9}$BrO$_{2}$
210,4.498,,0.2775,253.37,Barium chromate,BaCrO$_{4}$
,,,,,Deoxyuridine,C$_{9}$H$_{12}$N$_{2}$O$_{5}$
,,,,239.311,Symbescaline,C$_{13}$H$_{21}$NO$_{3}$
199-201,,,,222.3,IBMX,C$_{10}$H$_{14}$N$_{4}$O$_{2}$
,,,,235.19132,N-Acetyltalosaminuronic acid,C$_{8}$H$_{13}$NO$_{7}$
,,,,,Nadroparin calcium,C$_{23}$H$_{30}$NO$_{3}$
,,,,,Incadronic acid,
,,,,172.226,Tryptoline,C$_{11}$H$_{12}$N$_{2}$
,,,Miscible,,Acetic acid,C$_{2}$H$_{4}$O$_{2}$
,,,,409.07,Fentin acetate,C$_{20}$H$_{18}$O$_{2}$Sn
,0.912,,,,Rhodopin,C$_{40}$H$_{58}$O
,,,,104.06,Hydroxypyruvic acid,C$_{3}$H$_{4}$O$_{4}$
-98,,56.9,~25% (20 $^{\circ}$C),,Methyl acetate,C$_{3}$H$_{6}$O$_{2}$
,,,,,Rimcazole,C$_{21}$H$_{27}$N$_{3}$
,0.872,122,,222.37,Nerolidol,C$_{15}$H$_{26}$O
36.5,,,miscible,102.088,Acetoacetic acid,C$_{4}$H$_{6}$O$_{3}$
-45,0.88,88,,86.13,Tetrahydropyran,C$_{5}$H$_{10}$O
,,,,,Hexacyclonate,C$_{9}$H$_{16}$O$_{3}$
,,,,,Suramin,C$_{51}$H$_{40}$N$_{6}$O$_{23}$S$_{6}$
,2.477,,1.75,270.322,Potassium persulfate,K$_{2}$S$_{2}$O$_{8}$
,,,,,Teprotide,C$_{53}$H$_{76}$N$_{14}$O$_{12}$
350-352,1.687,597.8,Insoluble in water,284.22,Rhein (molecule),C$_{15}$H$_{8}$O$_{6}$
,,,75.8,90.442,Sodium chlorite,NaClO$_{2}$
10-Sep,,261-263,,143.19,Lepidine,C$_{10}$H$_{9}$N
110,,,,,Tolnaftate,C$_{19}$H$_{17}$NOS
240,,,27.2,343.424,Strontium bromate,SrBr$_{2}$O$_{6}$
,,,,,Anthanthrone,C$_{22}$H$_{10}$O$_{2}$
,,,,,Maribavir,Cl$_{5}$H$_{19}$Cl$_{2}$N$_{3}$O$_{4}$
,,,,,LY-503 430,
,,,,,Prenalterol,C$_{12}$H$_{19}$NO$_{3}$
,,,,,Infliximab,C$_{6428}$H$_{9912}$N$_{1694}$O$_{1987}$S$_{46}$
,,,,,Amiodarone,C$_{25}$H$_{29}$I$_{2}$NO$_{3}$
46-49,,105-107,,,Mosher's acid,C$_{10}$H$_{9}$F$_{3}$O$_{3}$
13.5,0.8525,,Insoluble,,Isopropyl palmitate,C$_{19}$H$_{38}$O$_{2}$
,,,,,BRL-52537,C$_{18}$H$_{24}$Cl$_{2}$N$_{2}$O
,,,,386.35,Gummadiol,C$_{20}$H$_{18}$O$_{8}$
,,,,,Zatosetron,C$_{19}$H$_{25}$ClN$_{2}$O$_{2}$
5.2,1.612,80.1,,,Hexafluorobenzene,C$_{6}$F$_{6}$
,,,,284.34,Nolatrexed,C$_{14}$H$_{12}$N$_{4}$OS
,,,,,Fast Yellow AB,C$_{12}$H$_{11}$N$_{3}$O$_{6}$S$_{2}$
-91.57,,82,,182.901,Dichlorine heptoxide,Cl$_{2}$O$_{7}$
325,2.28,,soluble,,Potassium pyrosulfate,K$_{2}$O$_{7}$S$_{2}$
,,,,,Tyrothricin,C$_{65}$H$_{85}$N$_{11}$O$_{13}$
,,,,,Iloprost,C$_{22}$H$_{32}$O$_{4}$
2160,9.3,,insoluble,240.011,Tungsten disilicide,WSi$_{2}$
,,,,78.1,Bicyclopropenyl,C$_{6}$H$_{6}$
,,,,393.85,Dialifor,C$_{14}$H$_{17}$ClNO$_{4}$PS$_{2}$
,,,,,Propallylonal,C$_{10}$H$_{13}$BrN$_{2}$O$_{3}$
1050,,,insoluble,325.82,Indium(III) sulfide,In$_{2}$S$_{3}$
$\alpha$: 60-61,$\alpha$: 0.8375,$\alpha$: 173.5-174.8,,,Terpinene,C$_{10}$H$_{16}$
,,,,,Gemeprost,C$_{23}$H$_{38}$O$_{5}$
,,,,,Thymidine triphosphate,C$_{10}$H$_{17}$N$_{2}$O$_{14}$P$_{3}$
-50,,181,slowly hydrolyses,,Dimethyl methylphosphonate,C$_{3}$H$_{9}$O$_{3}$P
,,,,,AP26113,C$_{26}$H$_{34}$ClN$_{6}$O$_{2}$P
,,,,,Fenspiride,C$_{15}$H$_{20}$N$_{2}$O$_{2}$
,,,,,Brivanib alaninate,
183,,,0.005% (22.2$^{\circ}$C),236.74,Hexachloroethane,C$_{2}$Cl$_{6}$
144-148,1.255,,,216.308,Diphenylsilanediol,C$_{12}$H$_{12}$O$_{2}$Si
,,,,,Technetium (99mTc) sestamibi,
,,,,,Amfepramone,C$_{13}$H$_{19}$NO
170,,,,,AL-34662,C$_{10}$H$_{13}$N$_{3}$O
,,,,,Tubocurarine chloride,
,,,,,Penciclovir,C$_{10}$H$_{15}$N$_{5}$O$_{3}$
62.5,,160,"in water (>850 g/L), alcohols and ketones",,Isosorbide,C$_{6}$H$_{10}$O$_{4}$
,1.19,,decompose,,Methylenetriphenylphosphorane,C$_{19}$H$_{17}$P
,,,,,Para-Nitrophenylphosphate,C$_{6}$H$_{6}$NO$_{6}$P
,,,,,Iclazepam,C$_{21}$H$_{21}$ClN$_{2}$O$_{2}$
1128,,,insoluble,301.62,Sodium metatitanate,Na$_{2}$Ti$_{3}$O$_{7}$
,,,,274.26,Afzelechin,C$_{15}$H$_{14}$O$_{5}$
-76.5,,126.7,Decomposes,,Vanadium oxytrichloride,VOCl$_{3}$
,,,0.2% (20$^{\circ}$C),,Propoxur,C$_{11}$H$_{15}$NO$_{3}$
,,,,,Phenylethylidenehydrazine,C$_{8}$H$_{10}$N$_{2}$
,,,,,Modafinil,C$_{15}$H$_{15}$NO$_{2}$S
,,,,around 420,Sodium laureth sulfate,CH$_{3}$(CH$_{2}$)$_{11}$(OCH$_{2}$CH$_{2}$)$_{n}$OSO$_{3}$Na
770,2.672,,31.2,342.15,Aluminium sulfate,Al$_{2}$(SO$_{4}$)$_{3}$
,,,,,Org 12962,
,,,,,Metfendrazine,C$_{10}$H$_{16}$N$_{2}$
,,,,,Methandrostenolone,C$_{20}$H$_{28}$O$_{2}$
,,,,,CL-218 872,
,,,,,Oxazolam,C$_{18}$H$_{17}$ClN$_{2}$O$_{2}$
192,,,,,Ethylene diurea,C$_{4}$H$_{10}$N$_{4}$O$_{2}$
,,$\alpha$: 281-282,,,Guaiene,C$_{15}$H$_{24}$
,,,,,C-8813,C$_{20}$H$_{26}$BrNOS
2865,10.97,,insoluble,270.03,Uranium dioxide,UO$_{2}$
,,,,1229.3,Digitonin,C$_{56}$H$_{92}$O$_{29}$
,,,,,Protriptyline,C$_{19}$H$_{21}$N
,,,,,F-2 (psychedelic),
,,,,448.37,Astragalin,C$_{21}$H$_{20}$O$_{11}$
,,,Miscible,,N-Propyl iodide,C$_{3}$H$_{7}$I
,,,,,Dicycloverine,C$_{19}$H$_{35}$NO$_{2}$
,,,,348.866,NNC 38-1049,C$_{19}$H$_{25}$ClN$_{2}$O$_{2}$
,1.19,112,,,Polyvinyl acetate,(C$_{4}$H$_{6}$O$_{2}$)$_{n}$
,,,,,Setiptiline,C$_{19}$H$_{19}$N
430,,,,175.6,Tellurium trioxide,TeO$_{3}$
decomposes at 60,2.09,,,571.858,Tetracobalt dodecacarbonyl,Co$_{4}$(CO)$_{12}$
,,370.6,Slightly soluble in cold water,,Tetrahydroxy-1 4-benzoquinone,C$_{6}$H$_{4}$O$_{6}$
,,,,,Methylketobemidone,C$_{14}$H$_{19}$NO$_{2}$
93,,250,Freely soluble,96.11,Sulfamide,H$_{4}$N$_{2}$O$_{2}$S
43.8,1.007,297.9,37,,Lauric acid,C$_{12}$H$_{24}$O$_{2}$
,1.1403,95,Decomposes,108.52,Ethyl chloroformate,C$_{3}$H$_{5}$ClO$_{2}$
,,,,,Bifonazole,C$_{22}$H$_{18}$N$_{2}$
414,3.685,,9.16,194.91,Caesium nitrate,CsNO$_{3}$
,,,,,Calphostin C,C$_{44}$H$_{38}$O$_{14}$
,,,,,HZ-2,C$_{23}$H$_{26}$N$_{4}$O$_{5}$
,,,,,ITI-007,C$_{24}$H$_{28}$FN$_{3}$O
,,,,,Fotemustine,C$_{9}$H$_{19}$ClN$_{3}$O$_{5}$P
-164.85,,-92.5,Reacts,,Diborane,H$_{6}$B$_{2}$
,,,,,Etoxadrol,C$_{16}$H$_{23}$NO$_{2}$
,,,,,Rapastinel,C$_{18}$H$_{31}$N$_{5}$O$_{6}$
,,,,,Antazoline,C$_{17}$H$_{19}$N$_{3}$
,0.955,102-104,hydrolysis,,Methyltrimethoxysilane,C$_{4}$H$_{12}$O$_{3}$Si
,,532,,,Damnacanthal,C$_{16}$H$_{10}$O$_{5}$
,,,,316.43,Pachyphyllone,C$_{20}$H$_{28}$O$_{3}$
,,,,,Halazepam,C$_{17}$H$_{12}$ClF$_{3}$N$_{2}$O
300,,,,,Creatinine,C$_{4}$H$_{7}$N$_{3}$O
,,,,,Pimobendan,C$_{19}$H$_{18}$N$_{4}$O$_{2}$
,,,,,Ortataxel,C$_{44}$H$_{57}$NO$_{17}$
,,,,,Tris(dimethylamino)aluminium dimer,C$_{12}$H$_{36}$Al$_{2}$N$_{6}$
,,,,,Methylprednisolone aceponate,
,,,,320.21,Luteic acid,C$_{14}$H$_{8}$O$_{9}$
,,,,,Magnesium pidolate,
,,,,,Tadocizumab,C$_{2107}$H$_{3252}$N$_{562}$O$_{673}$S$_{12}$
150-155,,,soluble,155.15,Cupferron,C$_{6}$H$_{9}$N$_{3}$O$_{2}$
,,,,,Ditazole,C$_{19}$H$_{20}$N$_{2}$O$_{3}$
,,,,252.1866,Arsenic pentachloride,AsCl$_{5}$
,,,,286.28,Coeloginanthrin,C$_{16}$H$_{14}$O$_{5}$
,,,,,Festinavir,C$_{12}$H$_{12}$N$_{2}$O$_{4}$
,,,,,Orlistat,C$_{29}$H$_{53}$NO$_{5}$
,,,insoluble in water,174.71,Nickel chromate,NiCrO$_{4}$
154.5-157,,,,,SCH-50911,C$_{8}$H$_{15}$NO$_{3}$
,,,,,Deoxyadenosine,C$_{10}$H$_{13}$N$_{5}$O$_{3}$
,,,,,Propiram,C$_{16}$H$_{25}$N$_{3}$O
,,,,,Octadecylphosphonic acid,C$_{18}$H$_{39}$O$_{3}$P
,,,,,Curium(III) oxide,Cm$_{2}$O$_{3}$
,,,,,Amylose,variable
,,,,342.44,Sucrononic acid,C$_{19}$H$_{26}$N$_{4}$O$_{2}$
432,,1502,0.14,187.77,Silver bromide,AgBr
35,0.905,163.7,,102.132,Pivalic acid,C$_{5}$H$_{10}$O$_{2}$
2002,3.7,,,119.68,Strontium sulfide,SrS
,,,,,Premarin,C$_{18}$H$_{20}$O$_{2}$
,,,,,Zonisamide,C$_{8}$H$_{8}$N$_{2}$O$_{3}$S
,,,,,Hypromellose,variable
,,,,,Insulin glulisine,
,,,,,RB-101,C$_{31}$H$_{38}$N$_{2}$O$_{3}$S$_{3}$
,,,,,Cromakalim,C$_{16}$H$_{18}$N$_{2}$O$_{3}$
,,,,,Levomoramide,C$_{25}$H$_{32}$N$_{2}$O$_{2}$
1,,237.7,insoluble,150.217,Carvacrol,C$_{10}$H$_{14}$O
,,,,,Elfazepam,C$_{19}$H$_{18}$ClFN$_{2}$O$_{3}$S
,,,,,Glicaramide,C$_{30}$H$_{42}$N$_{6}$O$_{5}$S
,,,,,P-Phenylenediamine,C$_{6}$H$_{8}$N$_{2}$
,,,,,Fludroxycortide,C$_{24}$H$_{33}$FO$_{6}$
,,,,,Pranoprofen,C$_{15}$H$_{13}$NO$_{3}$
,,,,,Sumatriptan,C$_{14}$H$_{21}$N$_{3}$O$_{2}$S
98,1.163,,,,Aspergillic acid,C$_{12}$H$_{20}$N$_{2}$O$_{2}$
,,,,,Hydralazine,C$_{8}$H$_{8}$N$_{4}$
,,,,,Diiodohydroxyquinoline,C$_{9}$H$_{5}$I$_{2}$NO
,,,,,Pristinamycin IIA,
,,,,,Hydracarbazine,C$_{5}$H$_{7}$N$_{5}$O
,,,Miscible,,Isobutylamine,C$_{4}$H$_{11}$N
,,,,,Lichenin,(C$_{6}$H$_{10}$O$_{5}$)$_{x}$
167.5,1.908,,32.8,,Potassium formate,CHKO$_{2}$
,,,hydrophobic,,JWH-018,C$_{24}$H$_{23}$NO
,,,,,Chartreusin,C$_{32}$H$_{32}$O$_{14}$
250,3.056,,anhydrous:,,Iron(III) phosphate,FePO$_{4}$
,,,,578.52,Rhoifolin,C$_{27}$H$_{30}$O$_{14}$
150,,,Practically insoluble in water,,Levopimaric acid,C$_{20}$H$_{30}$O$_{2}$
,,,,,SoRI-9409,C$_{29}$H$_{27}$ClN$_{2}$O$_{3}$
,,,,,Tegaserod,C$_{16}$H$_{23}$N$_{5}$O
,,,,,SKF-89 145,
54,,100,0.36,,Beryllium carbonate,BeCO$_{3}$
237-243,,,,364.45,Cetrimonium bromide,C$_{19}$H$_{42}$BrN
,,,,,Monoxerutin,C$_{29}$H$_{34}$O$_{17}$
,,,Very soluble,,Threose,C$_{4}$H$_{8}$O$_{4}$
-76.5,0.846,104,18% (20$^{\circ}$C),,Crotonaldehyde,C$_{4}$H$_{6}$O
,,,,467.43,Chlornaltrexamine,C$_{24}$H$_{32}$Cl$_{2}$N$_{2}$O$_{3}$
766,6.78,,,618.74232,Uranium triiodide,UI$_{3}$
,1.8,,,,Potassium fulminate,CKNO
,,,1.893,,Fructone,C$_{8}$H$_{14}$O$_{4}$
,,,,,Serinolamide A,
,,,,,Norpropoxyphene,C$_{34}$H$_{65}$N$_{3}$O$_{5}$S
,,,,835.61,Methacrylyl-CoA,C$_{25}$H$_{40}$N$_{7}$O$_{17}$P$_{3}$S
195,,,,,Dimazole,C$_{15}$H$_{23}$N$_{3}$OS
,,,,290.26,Mesquitol,C$_{15}$H$_{14}$O$_{6}$
,,,,,Pyrethrin II,C$_{22}$H$_{28}$O$_{5}$
,,,,,Furazolidone,C$_{8}$H$_{7}$N$_{3}$O$_{5}$
,,,,,Avibactam,chemical_formulaC$_{7}$H$_{11}$N$_{3}$O$_{6}$S
,,,,745.647,Uranium tetraiodide,UI$_{4}$
,,,,,JQ1,C$_{23}$H$_{25}$ClN$_{4}$O$_{2}$S
,,,,,Loracarbef,C$_{16}$H$_{16}$ClN$_{3}$O$_{4}$
,,,,,Butyl iodide,C$_{4}$H$_{9}$I
,,,,198.176,GV (nerve agent),C$_{6}$H$_{16}$FN$_{2}$O$_{2}$P
222,,,,,Solanocapsine,C$_{27}$H$_{46}$N$_{2}$O$_{2}$
-48,0.94,101,1.5,,Methyl methacrylate,C$_{5}$H$_{8}$O$_{2}$
103-106,,,,,Poly(ethylene succinate),(C$_{6}$H$_{8}$O$_{4}$)$_{n}$
,,,,,Fentanyl,C$_{22}$H$_{28}$N$_{2}$O
,,,,,Tolpropamine,C$_{18}$H$_{23}$N
-14,,187,"Miscible, reacts",,Glutaraldehyde,C$_{5}$H$_{8}$O$_{2}$
,,,,,O-774,C$_{25}$H$_{35}$NO$_{2}$
,,,Soluble (Hydrolysis),,Zirconocene dichloride,C$_{10}$H$_{10}$ZrCl$_{2}$
,,,,,Polidocanol,C$_{30}$H$_{62}$O$_{10}$
,,,,610.703,Endomorphin-1,C$_{34}$H$_{38}$N$_{6}$O$_{5}$
,,,,,MDMAT,C$_{12}$H$_{15}$NO$_{2}$
,,,,,Rentiapril,C$_{13}$H$_{15}$NO$_{4}$S$_{2}$
-84.7,,117,1.91,100.16,Methyl isobutyl ketone,C$_{6}$H$_{12}$O
,,,,360.44,Roxibolone,C$_{21}$H$_{28}$O$_{5}$
2415,,3900,,,Holmium(III) oxide,Ho$_{2}$O$_{3}$
26,1.099,242,,,Isoquinoline,C$_{9}$H$_{7}$N
,,,,,Cloricromen,C$_{20}$H$_{26}$ClNO$_{5}$
,,,,,Prothionamide,C$_{9}$H$_{12}$N$_{2}$S
,,,0.96,344.36,Rhodotorulic acid,C$_{14}$H$_{24}$N$_{4}$O$_{6}$
9.43,3.25,97.85,Reacts,221.89,Iodine pentafluoride,IF$_{5}$
,,,,,GRN-529,C$_{22}$H$_{15}$F$_{2}$N$_{3}$O$_{2}$
,,,,,Mecillinam,C$_{15}$H$_{23}$N$_{3}$O$_{3}$S
,,,,202.199,Xenon dichloride,XeCl$_{2}$
,,,polar organic solvents,,Knolker complex,C$_{17}$H$_{28}$FeO$_{3}$Si$_{2}$
,,,,,Ioxilan,C$_{18}$H$_{24}$I$_{3}$N$_{3}$O$_{8}$
,,,,,Tiaprofenic acid,
,,,insoluble,,Carbon monosulfide,CS
,,,,,Carmofur,C$_{11}$H$_{16}$FN$_{3}$O$_{3}$
164,1.585,,Soluble,150.13,Arabinose,C$_{5}$H$_{10}$O$_{5}$
,0.867,168-169,,136.24,Carene,C$_{10}$H$_{16}$
,,,,650.9,Iron(III) acetate,C$_{14}$H$_{27}$Fe$_{3}$O$_{18}$
32-33,,,,198.31,Vetivazulene,C$_{15}$H$_{18}$
,,,,,Proxorphan,C$_{19}$H$_{25}$NO$_{2}$
254,4.7,,68,303.325,Gold(III) chloride,AuCl$_{3}$
,,,,,JWH-175,C$_{24}$H$_{25}$N
,,,,212.19,Danielone,C$_{10}$H$_{12}$O$_{5}$
,,,,,Polyfluorene,(C$_{13}$H$_{8}$)$_{n}$
,,,,,Iopydol,C$_{8}$H$_{9}$I$_{2}$NO$_{3}$
,,,,336.4,Californidine,C$_{21}$H$_{22}$NO$^{+}_{3}$
,,460.9,26,,Paclobutrazol,C$_{15}$H$_{20}$ClN$_{3}$O
62-65,,121-127,,138.12,Sesamol,C$_{7}$H$_{6}$O$_{3}$
400.9,2.658,,Soluble,222.12,Sodium pyrosulfate,Na$_{2}$S$_{2}$O$_{7}$
203.5,,,12,,Cellobiose,C$_{12}$H$_{22}$O
,,,,,Emtricitabine,C$_{8}$H$_{10}$FN$_{3}$O$_{3}$S
,,,,,Cysteine sulfinic acid,C$_{3}$H$_{7}$NO$_{4}$S
,,,,,Meropenem,C$_{17}$H$_{25}$N$_{3}$O$_{5}$S
228-231,,,Insoluble,,Lawesson's reagent,C$_{14}$H$_{14}$O$_{2}$P$_{2}$S$_{4}$
-78,1.155,259,6.1,,Triacetin,C$_{9}$H$_{14}$O$_{6}$
,,,,,LY-293284,C$_{19}$H$_{26}$N$_{2}$O
,,,,,Mofebutazone,C$_{13}$H$_{16}$N$_{2}$O$_{2}$
357,,,Insoluble,228.29,Tetracene,C$_{18}$H$_{12}$
,,,,,Lennoxamine,C$_{20}$H$_{19}$NO$_{5}$
>300,,,soluble,112.1689,Potassium propanoate,C$_{3}$H$_{5}$KO$_{2}$
,,,,,Pukateine,C$_{18}$H$_{17}$NO$_{3}$
254,4.36,364,soluble,492.43,Niobium(V) bromide,NbBr$_{5}$
,,,,,Piberaline,C$_{17}$H$_{19}$N$_{3}$O
,,,,348.48,Lauryl glucoside,C$_{18}$H$_{36}$O$_{6}$
2160,2.22,2300,decomposes,64.099,Calcium carbide,CaC$_{2}$
,,,,274.26,Phloretin,C$_{15}$H$_{14}$O$_{5}$
160,,,Insoluble,,Stigmasterol,C$_{29}$H$_{48}$O
,,,,,Fospropofol,C$_{13}$H$_{19}$Na$_{2}$O$_{5}$P
65,,,,373.94,Methylthioirontricarbonyl dimer,C$_{8}$H$_{6}$Fe$_{2}$O$_{6}$S$_{2}$
,,,,,Hematoporphyrin,C$_{34}$H$_{38}$N$_{4}$O$_{6}$
,,,,,HU-243,C$_{25}$H$_{40}$O$_{3}$
,,,,,Pirbuterol,C$_{12}$H$_{20}$N$_{2}$O$_{3}$
,,,,,Lomitapide,C$_{39}$H$_{37}$F$_{6}$N$_{3}$O$_{2}$
,,,,172.54,Diethyl chlorophosphate,C$_{4}$H$_{10}$ClO$_{3}$P
,,,,253.341,EME (psychedelic),C$_{14}$H$_{23}$NO$_{3}$
2400,7.215,3500,insoluble,172.115,Cerium(IV) oxide,CeO$_{2}$
,,51-53,,,Azocane,C$_{7}$H$_{15}$N
25,1.03,58,,170.31,Grapefruit mercaptan,C$_{10}$H$_{18}$S
,,,,,Dimethyllysergamide,C$_{18}$H$_{21}$N$_{3}$O
,,,,,Medroxyprogesterone acetate,
,1.2,118,0.33,230.28,Demeton-S-methyl,C$_{6}$H$_{15}$O$_{3}$PS$_{2}$
1625,,,insoluble,,Barium titanate,BaTiO$_{3}$
,,,,,Muramyl dipeptide,C$_{19}$H$_{32}$N$_{4}$O$_{11}$
8,0.9,116,miscible,,Ethylenediamine,C$_{2}$H$_{8}$N$_{2}$
,1.064,246,miscible,,DMPU,C$_{6}$H$_{12}$N$_{2}$O
,,,Insoluble in water,120.53,Methyl 2-chloroacrylate,C$_{4}$H$_{5}$ClO$_{2}$
,,,,,Androstadienone,C$_{19}$H$_{26}$O
,,,,,Fenclozic acid,
,,,,,Bethanidine,C$_{10}$H$_{15}$N$_{3}$
,,,0.2,237.28,Ambazone,C$_{8}$H$_{11}$N$_{7}$S
966,2.46,1434,16.4,65.8,Sodium metaborate,NaBO$_{2}$
,,,,,Methylaluminoxane,(Al(CH$_{3}$)$_{x}$O$_{y}$)$_{n}$
,,,,,NS-2359,C$_{15}$H$_{19}$Cl$_{2}$NO
,,,,,Gonane,C$_{17}$H$_{28}$
,,,,,Pargyline,C$_{11}$H$_{13}$N
,,,,,Pigment Yellow 16,C$_{34}$H$_{28}$Cl$_{4}$N$_{6}$O$_{4}$
,,,,,Chlorpromazine,C$_{17}$H$_{19}$ClN$_{2}$S
,,,,,R-30490,C$_{24}$H$_{32}$N$_{2}$O$_{2}$
,,,,,Climazolam,C$_{18}$H$_{13}$Cl$_{2}$N$_{3}$
120,1.88,,58.7,164.14,Hydroxylammonium sulfate,H$_{8}$N$_{2}$O$_{6}$S
,,,,,Neratinib,C$_{30}$H$_{29}$ClN$_{6}$O$_{3}$
,,,,,Mariptiline,C$_{18}$H$_{18}$N$_{2}$O
,3.14,,,,Tricalcium phosphate,Ca$_{3}$O$_{8}$P$_{2}$
,,,,,Neostigmine,C$_{12}$H$_{19}$N$_{2}$O$_{2}$
60.5,1.56,142,166,133.021982,Beryllium nitrate,Be(NO$_{3}$)$_{2}$
,,,,,Obovatol,C$_{18}$H$_{18}$O$_{3}$
1606,3.96,,0.0135,183.68,Strontium sulfate,SrSO$_{4}$
,,,,,Abiraterone,C$_{24}$H$_{31}$NO
190,,,"Soluble in water and propylene glycol, slightly soluble in fat and miscible at room temperature in ethanol",218.188,Lactisole,C$_{10}$H$_{11}$O$_{4}$Na
,,,,,Caplacizumab,C$_{1213}$H$_{1891}$N$_{357}$O$_{380}$S$_{10}$
-40,,80-90,,,Thioacetone,C$_{3}$H$_{6}$S
124-126,,176-177,,,Exo-Norborneol,C$_{7}$H$_{12}$O
,,,,179.171,Mannosamine,C$_{6}$H$_{13}$NO$_{5}$
,,,,,Pridinol,C$_{20}$H$_{25}$NO
181-183,1.287,325,,,Camphorsultam,C$_{10}$H$_{17}$NO$_{2}$S
,,,,,Efavirenz,C$_{14}$H$_{9}$ClF$_{3}$NO$_{2}$
,,16.8,,212,Bismuthine,BiH$_{3}$
,,,,,Isometamidium chloride,
,,,,872.551,Uranium pentaiodide,UI$_{5}$
,,,,,O-4310,C$_{15}$H$_{21}$FN$_{2}$O
360,4.75,,insoluble,386.72,Arsenic triselenide,As$_{2}$Se$_{3}$
,,,,2098.2,Little gastrin I,C$_{97}$H$_{124}$N$_{20}$O$_{31}$S
101,,310,,,Xanthene,C$_{13}$H$_{10}$O