Property Melting Point,Property Density,Property Boiling Point,Property Solubility,Property Molar Mass,Name,formula
,,,,256.25,Pinocembrin,C$_{15}$H$_{12}$O$_{4}$
,,,,102.905,ClO dimer,Cl$_{2}$O$_{2}$
,,,,,Lumefantrine,C$_{30}$H$_{32}$Cl$_{3}$NO
155,,,,,Phenylpyruvic acid,C$_{9}$H$_{8}$O$_{3}$
150,4.3,377,,555.485,Titanium tetraiodide,TiI$_{4}$
,,,,,Meclofenoxate,C$_{12}$H$_{16}$ClNO$_{3}$
,,,,1176.02,Violdelphin,C$_{53}$H$_{59}$O$_{30}$+
,,,,,Halothane,C$_{2}$HBrClF$_{3}$
,,,,,Dalcetrapib,C$_{23}$H$_{35}$NO$_{2}$S
,,,,,Romiplostim,C$_{2634}$H$_{4086}$N$_{722}$O$_{790}$S$_{18}$
248-252,,,,,Para Red,C$_{16}$H$_{11}$N$_{3}$O$_{3}$
200,,,,600.85,Violaxanthin,C$_{40}$H$_{56}$O$_{4}$
2000,2.84,,decomposes,56.38,Magnesium sulfide,MgS
14,1.05,218,,361.48,Octocrylene,C$_{24}$H$_{27}$NO$_{2}$
,,,,304.47,Methandriol,C$_{20}$H$_{32}$O$_{2}$
,,,,,Acetyldigoxin,C$_{43}$H$_{66}$O$_{15}$
,,,,,Phenomorphan,C$_{24}$H$_{29}$NO
59.4-59.8,0.812,210,1.1,270.49,Stearyl alcohol,C$_{18}$H$_{38}$O
,,,,,Bosentan,C$_{27}$H$_{29}$N$_{5}$O$_{6}$S
,,,,,Uramustine,C$_{8}$H$_{11}$Cl$_{2}$N$_{3}$O$_{2}$
,,,,,Etidronic acid,
190,2.19,267,6.27,206.106,Sodium dithionate,Na$_{2}$S$_{2}$O$_{6}$
,,,,,Adalimumab,C$_{6428}$H$_{9912}$N$_{1694}$O$_{1987}$S$_{46}$
,,,,316.26,Azaleatin,C$_{16}$H$_{12}$O$_{7}$
,,,,,L-759 656,
119,,,Reacts with water,,Carbonyldiimidazole,C$_{7}$H$_{6}$N$_{4}$O
,,,,,Droxicam,C$_{16}$H$_{11}$N$_{3}$O$_{5}$S
,,,,,Anisatin,C$_{15}$H$_{20}$O$_{8}$
,,,,,Isoconazole,C$_{18}$H$_{14}$Cl$_{4}$N$_{2}$O
-40,,162,Miscible,150.08,Trifluoromethanesulfonic acid,CF$_{3}$SO$_{3}$H
22-26,,377-378,Insoluble,,Ethyl palmitate,FN$_{3}$
,,,,480.85,Lacceroic acid,C$_{32}$H$_{64}$O$_{2}$
,,,,,Stryker's reagent,C$_{108}$H$_{96}$Cu$_{6}$P$_{6}$
,,,,,Tramazoline,C$_{13}$H$_{17}$N$_{3}$
,,,,,Asoprisnil,C$_{28}$H$_{35}$NO$_{4}$
,,,,374.34,Chrysosplenetin,C$_{19}$H$_{18}$O$_{8}$
124-129,,,,,Triphenylcarbethoxymethylenephosphorane,C$_{22}$H$_{21}$O$_{2}$P
,,,,,Tabernanthine,C$_{20}$H$_{26}$N$_{2}$O
,,,,,JWH-148,C$_{24}$H$_{23}$NO
,,,0.26M,267.48,Hexamminecobalt(III) chloride,H$_{18}$N$_{6}$Cl$_{3}$Co
,1.27,,,,Polyetherimide,(C$_{37}$H$_{24}$O$_{6}$N$_{2}$)$_{n}$
,,,,,Atiprosin,C$_{20}$H$_{29}$N$_{3}$
,,,,,Procyclidine,C$_{19}$H$_{30}$ClNO
,,,,,Nifurzide,C$_{12}$H$_{8}$N$_{4}$O$_{6}$S
,,,,,Thiothinone,C$_{8}$H$_{11}$NOS
,,,,,Doxylamine,C$_{17}$H$_{22}$N$_{2}$O
,,,Negligible,,Bis(chloroethyl) ether,C$_{4}$H$_{8}$Cl$_{2}$O
,,,,,Pipenzolate,C$_{22}$H$_{28}$NO$_{3}$
,,,,,Pipobroman,C$_{10}$H$_{16}$Br$_{2}$N$_{2}$O$_{2}$
,,,,344.31,Scillavone A,C$_{18}$H$_{16}$O$_{7}$
104,,,3x10$^{-6}$ g/dm$^{3}$ (20 $^{\circ}$C),670.871,Monensin,C$_{36}$H$_{62}$O$_{11}$
,,,Soluble,52.46,Hypochlorous acid,HOCl
,,,,,U-50488,C$_{19}$H$_{26}$Cl$_{2}$N$_{2}$O
,,,,,Amprenavir,C$_{25}$H$_{35}$N$_{3}$O$_{6}$S
173,,,,,Michler's ketone,C$_{17}$H$_{20}$N$_{2}$O
,,,,,EA-3834,C$_{17}$H$_{25}$NO$_{3}$
400,2.658,,0.929,225.346,Barium oxalate,BaC$_{2}$O$_{4}$
-3,,26.6,,94.017,Oxalyl fluoride,C$_{2}$F$_{2}$O$_{2}$
,,,,1265.44,Physalaemin,C$_{58}$H$_{84}$N$_{14}$O$_{16}$S
,,,,284.24,Ataluren,C$_{15}$H$_{9}$FN$_{2}$O$_{3}$
271-273,,,,,Solanine,C$_{45}$H$_{73}$NO$_{15}$
,,,,302.23,Tricetin,C$_{15}$H$_{10}$O$_{7}$
114.3,1.219,304,<0.56,,Acetanilide,C$_{8}$H$_{9}$NO
425,1.17,,Soluble,109.6,Tetramethylammonium chloride,C$_{4}$H$_{12}$NCl
715,,850,,,Americium(III) chloride,AmCl$_{3}$
,1.5$\pm$0.1,,,,Vosaroxin,C$_{18}$H$_{19}$N$_{5}$O$_{4}$S
,,,,,Aloracetam,C$_{11}$H$_{16}$N$_{2}$O$_{2}$
,,,,,Fluvoxamine,C$_{15}$H$_{21}$F$_{3}$N$_{2}$O$_{2}$
112-113,,,,593.79,Discodermolide,C$_{33}$H$_{55}$NO$_{8}$
,,,,54.004,Chromium(II) hydride,CrH$_{2}$
,,,,275.386,PCAA,C$_{17}$H$_{25}$NO$_{2}$
,,,,,Resveratroloside,C$_{20}$H$_{22}$O$_{8}$
,,,,,Imatinib,C$_{29}$H$_{31}$N$_{7}$O
,,7,,200.03,Perfluoroisobutene,C$_{4}$F$_{8}$
278,1.378,500,,,Benzo(ghi)perylene,C$_{22}$H$_{12}$
Dec. 800,3.2,,Reacts,234.718,Niobium(IV) chloride,NbCl$_{4}$
,,,,,Nicotinyl alcohol,
,,,,304.25,Dihydromorin,C$_{15}$H$_{12}$O$_{7}$
,,,,227.19,Dexelvucitabine,C$_{9}$H$_{10}$FN$_{3}$O$_{3}$
,,,,,Mezepine,C$_{18}$H$_{22}$N$_{2}$
,,,,205.58,Strontium aluminate,SrAl$_{2}$O$_{4}$
,,,,,Potassium silicate,K$_{2}$O$_{3}$Si
,,,,578.52,Procyanidin B3,C$_{30}$H$_{26}$O$_{12}$
60,2.15,,200,232.29,Zinc chlorate,Zn(ClO$_{3}$)$_{2}$
,,,,,Perdesonide,C$_{25}$H$_{32}$O$_{6}$F$_{2}$
,,,,271.24,Pelargonidin,C$_{15}$H$_{11}$O$^{+}_{5}$
54,,,,215.07,Ruthenium hexafluoride,RuF$_{6}$
,,,,,Demoxepam,C$_{15}$H$_{11}$ClN$_{2}$O$_{2}$
,,,,,MEE (psychedelic),C$_{14}$H$_{23}$NO$_{3}$
560,,,decomposes,,Potassium superoxide,KO$_{2}$
,3.938,,,149.885,Silver fulminate,AgCNO
,,,,120.15,Benzamidine,C$_{7}$H$_{8}$N$_{2}$
163,,462,very soluble,253.32,Benzylmercapturic acid,C$_{12}$H$_{15}$NO$_{3}$S
,5.6,,insoluble,93.24,Zirconium(II) hydride,ZrH$_{2}$
,,,,,F-15 599,
138-139,,,,222.37,Delta-Cadinol,C$_{15}$H$_{26}$O
,,,,,Metaterol,C$_{11}$H$_{17}$NO$_{2}$
93.4,1.024,279,0.4,,Acenaphthene,C$_{12}$H$_{10}$
,,,,,Tribendimidine,C$_{28}$H$_{32}$N$_{6}$
,,,,,Bromfenac,C$_{15}$H$_{12}$BrNO$_{3}$
,,,,,RU-58642,C$_{15}$H$_{11}$F$_{3}$N$_{4}$O$_{2}$
,,,,,Falecalcitriol,C$_{27}$H$_{38}$F$_{6}$O$_{3}$
-18,,50,,,Performic acid,CH$_{2}$O$_{3}$
,,,,,Galactose 1-phosphate,C$_{6}$H$_{13}$O$_{9}$P
,,,,,Zafirlukast,C$_{31}$H$_{33}$N$_{3}$O$_{6}$S
,,,,,Mitragynine,C$_{23}$H$_{30}$N$_{2}$O$_{4}$
-38,1.574,74,,135.047,Cyanuric fluoride,C$_{3}$F$_{3}$N$_{3}$
,,,,46.03,Dioxirane,CH$_{2}$O$_{2}$
,,,,,WAY-100 135,
,,,,255.313,Pyrrolysine,C$_{12}$H$_{21}$N$_{3}$O$_{3}$
,,,,,Melarsomine,C$_{13}$H$_{21}$AsN$_{8}$S$_{2}$
,,,,,AG 489,C$_{26}$H$_{47}$N$_{7}$O$_{2}$
,,163,,,Bis(trimethylsilyl)sulfide,C$_{6}$H$_{18}$Si$_{2}$S
,,,,,Tremelimumab,C$_{6500}$H$_{9974}$N$_{1726}$O$_{2026}$S$_{52}$
,,,,,Tropacocaine,C$_{15}$H$_{19}$NO$_{2}$
,,,,,Pemetrexed,C$_{20}$H$_{21}$N$_{5}$O$_{6}$
388,,,,447.22,Tellurium tetrabromide,TeBr$_{4}$
190,,,,342.3,Gentiobiose,C$_{12}$H$_{22}$O$_{11}$
167.7,,416$\pm$ 30,slightly soluble,,Serotonin,C$_{10}$H$_{12}$N$_{2}$O
,,,,,Clocinizine,C$_{26}$H$_{27}$ClN$_{2}$
-94,0.7364,69-71,1.2,,Ethyl tert-butyl ether,C$_{6}$H$_{14}$O
-7,,106,miscible,,Piperidine,C$_{5}$H$_{11}$N
,,,,,Amylmetacresol,C$_{12}$H$_{18}$O
140,1.142,320,reacts violently,,Aluminium triethoxide,C$_{6}$H$_{15}$AlO$_{3}$
,,,,,Lobeglitazone,C$_{24}$H$_{24}$N$_{4}$O$_{5}$S
,,,"H2O g/dl) 10.6(30$^{\circ}$),14.1(52$^{\circ}$),19.0(61$^{\circ}$",,Threonine,C$_{4}$H$_{9}$NO$_{3}$
960,5.03,,,148.69,Gallium(II) selenide,GaSe
,,,,,Combretastatin A-1,C$_{18}$H$_{20}$O$_{6}$
,,53,,,Trimethylsilylacetylene,C$_{5}$H$_{10}$Si
,,,,,NAN-190,C$_{23}$H$_{27}$N$_{3}$O$_{3}$
30-34,1.29,114-116,,126.11,Hydroxymethylfurfural,C$_{6}$H$_{6}$O$_{3}$
87,,,Insoluble,438.81,Triacontanol,C$_{30}$H$_{62}$O
,,,,,Nafion,C$_{7}$HF$_{13}$O$_{5}$S.C$_{2}$F$_{4}$
,,,,,Peramivir,C$_{15}$H$_{28}$N$_{4}$O$_{4}$
,,,,,Beclabuvir,chemical_formulaC$_{36}$H$_{45}$N$_{5}$O$_{5}$S
,,,,,Eculizumab,C$_{27}$H$_{33}$N$_{3}$O$_{6}$S
,1.187,,,,Benzo(c)thiophene,C$_{8}$H$_{6}$S
44,,,,302.45,Catalpic acid,C$_{18}$H$_{30}$O$_{2}$
104-105,1.06,259,,136.2,O-Toluic acid,C$_{8}$H$_{8}$O$_{2}$
> 300,,,"Soluble in water,",185.221,Potassium phthalimide,C$_{8}$H$_{4}$KNO$_{2}$
,,,,,Isoxaprolol,C$_{19}$H$_{26}$N$_{2}$O$_{3}$
,,,,,Naboctate,C$_{33}$H$_{53}$NO$_{3}$
,,,,,Levobunolol,C$_{17}$H$_{25}$NO$_{3}$
,,,,402.44,Habenariol,C$_{22}$H$_{26}$O$_{7}$
,,,,,Etofamide,C$_{19}$H$_{20}$Cl$_{2}$N$_{2}$O$_{5}$
115,,,,166.17,Apocynin,C$_{9}$H$_{10}$O$_{3}$
,,,,,Tamsulosin,C$_{20}$H$_{28}$N$_{2}$O$_{5}$S
,,,,,Potassium tetraphenylborate,C$_{24}$H$_{20}$BK
,,,,253.337,MPM (psychedelic),C$_{14}$H$_{23}$NO$_{3}$
,,,,,Terbogrel,C$_{23}$H$_{27}$N$_{5}$O$_{2}$
-169.2,,-103.7,3.5,28.05,Ethylene,C$_{2}$H$_{4}$
,0.715,,,,Hexamethyldisilane,Si$_{2}$C$_{6}$H$_{18}$
,,,,,Pyoverdine,C$_{56}$H$_{88}$N$_{18}$O$_{22}$
,,,,,Iotroxic acid,
,,,,,Desmethylcitalopram,C$_{19}$H$_{19}$FN$_{2}$O
215,,,slightly soluble,119.619,Strontium peroxide,SrO$_{2}$
,,,,,Aclidinium bromide,
,,,,,Carboplatin,C$_{6}$H$_{12}$N$_{2}$O$_{4}$Pt
1238,5.3176,,insoluble,144.645,Gallium arsenide,GaAs
,,,,,Mesterolone,C$_{20}$H$_{32}$O$_{2}$
,,,,,Tamoxifen,C$_{26}$H$_{29}$NO
41-42,1.18,,,,Chlorpropham,C$_{10}$H$_{12}$ClNO$_{2}$
,,,,390.51,Digoxigenin,C$_{23}$H$_{34}$O$_{5}$
54.4,1.03,326.2,13,,Myristic acid,C$_{14}$H$_{28}$O$_{2}$
,,,,,Xylamidine,C$_{19}$H$_{24}$N$_{2}$O$_{2}$
,,> 55,,,Alpine borane,C$_{18}$H$_{31}$B
,,,,,Bepotastine,C$_{21}$H$_{25}$ClN$_{2}$O$_{3}$
,,,"Insoluble in cold, slightly soluble in hot (bright red blue)",825.97,Coomassie Brilliant Blue,C$_{45}$H$_{44}$N$_{3}$NaO$_{7}$S$_{2}$(Sodiumsalt)
,,,,,Dihydrouracil,C$_{4}$H$_{6}$N$_{2}$O$_{2}$
,,,,,Meclofenamic acid,
9,1.1325,144,,70.05,Propiolic acid,C$_{3}$H$_{2}$O$_{2}$
16,1.02,238,,134.18,Chavicol,C$_{9}$H$_{10}$O
,,,,,Propacetamol,C$_{14}$H$_{20}$N$_{2}$O$_{3}$
,,,,,Ciprofloxacin,C$_{17}$H$_{18}$FN$_{3}$O$_{3}$
,2.08,Decomposes above 200,Insoluble in water,175.64,Strontium oxalate,SrC$_{2}$O$_{4}$
,,,,625.749,Rhizoxin,C$_{35}$H$_{47}$NO$_{9}$
,,,,,Muldamine,C$_{29}$H$_{47}$NO$_{3}$
,,,,180.2,Carvonic acid,C$_{10}$H$_{12}$O$_{3}$
,,,,,Ditolylguanidine,C$_{15}$H$_{17}$N$_{3}$
,,,,,SB-205 384,
,,,,,Zymosan,(C$_{6}$H$_{10}$O$_{5}$)$_{x}$
130,1.193,,,,Piperine,C$_{17}$H$_{19}$NO$_{3}$
,,,,,Enoximone,C$_{12}$H$_{12}$N$_{2}$O$_{2}$S
,,,,,Ro5-2904,C$_{16}$H$_{11}$F$_{3}$N$_{2}$O
,,280,low,,Diethyl tartrate,C$_{8}$H$_{14}$O$_{6}$
,,,,,Levomethamphetamine,C$_{10}$H$_{15}$N
,,,,,Cefazaflur,C$_{13}$H$_{13}$F$_{3}$N$_{6}$O$_{4}$S$_{3}$
185,,371,,199.27,Phenothiazine,C$_{12}$H$_{9}$NS
-44,1.626,107,,141.53,Chlorosulfonyl isocyanate,CNClO$_{3}$S
,,,,,Acetrizoic acid,
,,,,,Probarbital,C$_{9}$H$_{14}$N$_{2}$O$_{3}$
63,,202,142,,Myclobutanil,C$_{15}$H$_{17}$N$_{4}$Cl
,,,,,Barbital,C$_{8}$H$_{12}$N$_{2}$O$_{3}$
-29,1.823,188,Insoluble,204.01,Iodobenzene,C$_{6}$H$_{5}$I
,,,,,Carfentanil,C$_{24}$H$_{30}$N$_{2}$O$_{3}$
,,,,,Rontalizumab,C$_{6486}$H$_{9990}$N$_{1722}$O$_{2026}$S$_{44}$
844,,,negligible,323.2,Lead(II) chromate,PbCrO$_{4}$
,,,,,Chromate and dichromate,CrO4$^{2-}$andCr2O7$^{2-}$
,,,,,Candoxatril,C$_{29}$H$_{41}$NO$_{7}$
,,,,,Toxiferine,C$_{40}$H$_{46}$N$_{4}$O$_{2}$
,,,,,ST-1936,C$_{13}$H$_{17}$ClN$_{2}$
-58,0.81,53,,80.5,Borazine,B$_{3}$H$_{6}$N$_{3}$
,,,,398.39,Bacillithiol,C$_{13}$H$_{22N$_{2}$}$O$_{10}$S
,,,,,Vesamicol,C$_{17}$H$_{25}$NO
-70,,86,,,Dihydropyran,C$_{5}$H$_{8}$O
,,,,849.63,Tiglyl-CoA,C$_{26}$H$_{42}$N$_{7}$O$_{17}$P$_{3}$S
,,,,,Methyprylon,C$_{10}$H$_{17}$NO$_{2}$
,,,,,Bisoxatin,C$_{20}$H$_{15}$NO$_{4}$
,,,,108.999,Nitrogen pentafluoride,NF$_{5}$
,,,,207.269,MADAM-6,C$_{12}$H$_{17}$NO$_{2}$
,,,,,Grepafloxacin,C$_{19}$H$_{22}$FN$_{3}$O$_{3}$
,,,,,Biapenem,C$_{15}$H$_{18}$N$_{4}$O$_{4}$S
130-132,,270-271,,,Sobrerol,C$_{10}$H$_{18}$O$_{2}$
58,,260,130,144.9734,Selenic acid,H$_{2}$SeO$_{4}$
,,,,352.465,Prostaglandin D2,C$_{20}$H$_{32}$O$_{5}$
,,,,,Etafedrine,C$_{12}$H$_{19}$NO
,,,,,Imipraminoxide,C$_{19}$H$_{24}$N$_{2}$O
,,,,420.41,Isorhapontin,C$_{21}$H$_{24}$O$_{9}$
2130,4.49,,insoluble,143.76,Titanium(III) oxide,Ti$_{2}$O$_{3}$
,,,,,Repaglinide,C$_{27}$H$_{36}$N$_{2}$O$_{4}$
,,,,314.28,Ermanin,C$_{17}$H$_{14}$O$_{6}$
,,,,377.27,Arsenamide,C$_{11}$H$_{12}$AsNO$_{5}$S$_{2}$
,2.74,,,,Magnesium iron hexahydride,Mg$_{2}$FeH$_{6}$
,,,,,Mitotane,C$_{14}$H$_{10}$Cl$_{4}$
145,,,3.92E-02,,Etodolac,C$_{17}$H$_{21}$NO$_{3}$
,,,,,UR-AK49,C$_{16}$H$_{27}$N$_{5}$O
,,,,,Torasemide,C$_{16}$H$_{20}$N$_{4}$O$_{3}$S
,,226,,186.291,Pentyl hexanoate,C$_{11}$H$_{22}$O$_{2}$
152.3,1.079,,Insoluble,,Chlorophyll a,C$_{55}$H$_{72}$MgO$_{5}$N$_{4}$
,,,,,Vecuronium bromide,
117,1.31,,,180.21,Phenanthroline,C$_{12}$H$_{8}$N$_{2}$
109.5,,350,0.09,,Dichlorodiphenyldichloroethane,C$_{14}$H$_{10}$Cl$_{4}$
,,,,666.19,Yttrium barium copper oxide,YBa$_{2}$Cu$_{3}$O$_{7}$
2200,2.36,decomposes at 1400,decomposes,143.95853,Aluminium carbide,Al$_{4}$C$_{3}$
,,,,,Azidomorphine,C$_{17}$H$_{20}$N$_{4}$O$_{2}$
152-153,,218,,190.24,Cytisine,C$_{11}$H$_{14}$N$_{2}$O
-85.6,,31.3,,,Furan,C$_{4}$H$_{4}$O
,,,,272.25,Garbanzol,C$_{15}$H$_{12}$O$_{5}$
-123,,63,,,Pentaborane(11),B$_{5}$H
>300,,,10,466.36,Indigo carmine,C$_{16}$H$_{8}$N$_{2}$Na$_{2}$O$_{8}$S$_{2}$
,,,,,SB-216641,C$_{28}$H$_{30}$N$_{4}$O$_{4}$
,,,,,Epicillin,C$_{16}$H$_{21}$N$_{3}$O$_{4}$S
58-60,,,,261.46,Tetra-n-butylammonium fluoride,(C$_{4}$H$_{9}$)$_{4}$NF
650,1.74,,hydrolysis,99.943,Sodium phosphide,Na$_{3}$P
,,,,,Valofane,C$_{10}$H$_{14}$N$_{2}$O$_{4}$
,,,,,Bis(dinitrogen)bis(1 2-bis(diphenylphosphino)ethane)molybdenum(0),C$_{52}$H$_{48}$MoN$_{4}$P$_{4}$
,,,,,Galantamine,C$_{17}$H$_{21}$NO$_{3}$
,,,,,Lonidamine,C$_{15}$H$_{10}$Cl$_{2}$N$_{2}$O$_{2}$
,,,,,Tetrachloro-m-xylene,C$_{8}$H$_{6}$Cl$_{4}$
,,,,,Poly(hexamethylene carbonate),(C$_{7}$H$_{12}$O$_{3}$)$_{n}$
270,1.49,,soluble in hot water,354.42,Reinecke's salt,C$_{4}$H$_{13.33}$N$_{7}$O$_{0.66}$CrS$_{4}$
,,,,,Gemtuzumab ozogamicin,C$_{6}$H$_{14}$O$_{6}$S$_{2}$
,,,,,Treprostinil,C$_{23}$H$_{34}$O$_{5}$
220,,,,,Cortisone,C$_{21}$H$_{28}$O$_{5}$
,,,,,Trazium,C$_{17}$H$_{13}$ClN$_{3}$O
,,,,74.08,Dimethyldioxirane,C$_{3}$H$_{6}$O$_{2}$
568,4.047,964,Hemipentahydrate:,,Cadmium chloride,CdCl$_{2}$
,,98,,,Oxazoline,C$_{3}$H$_{5}$NO
955,8.318,,,341.3364,Silver telluride,Ag$_{2}$Te
,,,,,Metazocine,C$_{15}$H$_{21}$NO
-29,1.128,170,miscible,98.1,Furfuryl alcohol,C$_{5}$H$_{6}$O$_{2}$
,,,,,Foscarnet,CH$_{3}$O$_{5}$P
,,,,,Caramiphen,C$_{18}$H$_{27}$NO$_{2}$
,,,,,Mephenytoin,C$_{12}$H$_{14}$N$_{2}$O$_{2}$
,,,,,Hydromorphinol,C$_{17}$H$_{21}$NO$_{4}$
,,,,,Mezerein,C$_{38}$H$_{38}$O$_{10}$
,,,,,Phenoxymethylpenicillin,C$_{16}$H$_{18}$N$_{2}$O$_{5}$S
,,,,,Mebutamate,C$_{10}$H$_{20}$N$_{2}$O$_{4}$
,,110,,,Methyl dihydrojasmonate,C$_{13}$H$_{22}$O$_{3}$
188-192,,,,,Bis-(2 4 5-trichloro-6-(pentyloxycarbonyl)phenyl)oxalate,C$_{26}$H$_{24}$Cl$_{6}$O$_{8}$
,,,,,Brofaromine,C$_{14}$H$_{16}$BrNO$_{2}$
,,,,,Imiprothrin,C$_{17}$H$_{22}$N$_{2}$O$_{4}$
,,,,578.52,Procyanidin B5,C$_{30}$H$_{26}$O$_{12}$
,,,,,Pigment Red 178,C$_{48}$H$_{26}$N$_{6}$O$_{4}$
88.5,1.026,,0.003,591.27,Magnesium stearate,Mg(C$_{18}$H$_{35}$O$_{2}$)$_{2}$
265,,,decomposes,286.749,Tungsten dichloride dioxide,WO$_{2}$Cl$_{2}$
,,,,,Benmoxin,C$_{15}$H$_{16}$N$_{2}$O
160-170,,,,,Nitrocellulose,C$_{6}$H$_{9}$(NO$_{2}$)O$_{5}$
,,,,,Amfecloral,C$_{11}$H$_{12}$Cl$_{3}$N
,,,,,Lacosamide,C$_{13}$H$_{18}$N$_{2}$O$_{3}$
,,,,,SCH-58261,C$_{18}$H$_{15}$N$_{7}$O
-136,,84,0.00002% (20$^{\circ}$C),,Tetraethyllead,C$_{8}$H$_{20}$Pb
,,,,,TAS-108,C$_{39}$H$_{55}$NO$_{10}$
,,,,,Raclopride,C$_{15}$H$_{20}$Cl$_{2}$N$_{2}$O$_{3}$
119.5,,,,,Cycloheximide,C$_{15}$H$_{23}$NO$_{4}$
,,,,,VUF-6002,C$_{13}$H$_{15}$ClN$_{4}$O
,,,sparingly,386.19,Calcium inosinate,C$_{10}$H$_{11}$CaN$_{4}$O$_{8}$P(xH$_{2}$O)
,,,,,Quercetin 3-O-sulfate,C$_{15}$H$_{10}$O$_{10}$S
,,,,,Procyanidin A1,C$_{30}$H$_{24}$O$_{12}$
,,,,,Pirinixic acid,
186,,,,309.273,N-Acetylneuraminic acid,C$_{11}$H$_{19}$NO$_{9}$
,,,,,Bromochlorofluoromethane,CHBrClF
200-201,,,,392.58,Hyodeoxycholic acid,C$_{24}$H$_{40}$O$_{4}$
,,,,,Para-Ethoxyamphetamine,C$_{11}$H$_{17}$NO
224,3.48,,,906.81,Triosmium dodecacarbonyl,C$_{12}$O$_{12}$Os$_{3}$
,,,,,Cathinone,C$_{9}$H$_{11}$NO
,,,,,Ceftiofur,C$_{19}$H$_{17}$N$_{5}$O$_{7}$S$_{3}$
,,,,,Prontosil,C$_{12}$H$_{13}$N$_{5}$O$_{2}$S
,,,,,Bucladesine,C$_{18}$H$_{23}$N$_{5}$NaO$_{8}$P
,0.96-1.04,,,,Polystyrene,(C$_{8}$H$_{8}$)$_{n}$
,,,,111.903,Bromine dioxide,BrO$_{2}$
952,,,reacts with water,,Palladium(II) fluoride,PdF$_{2}$
,,,,,Progabide,C$_{17}$H$_{16}$ClFN$_{2}$O$_{2}$
,,,,,VCHSR,C$_{24}$H$_{23}$Cl$_{3}$N$_{2}$
,,,,,Cotinine,C$_{10}$H$_{12}$N$_{2}$O
,,,,594.52,Veronicastroside,C$_{27}$H$_{30}$O$_{15}$
,,,,,Auranthine,C$_{19}$H$_{14}$N$_{4}$O$_{2}$
2573,8.47,,reacts to form ammonia,106.91,Niobium nitride,NbN
,0.913,201.5,20,,Dextroamphetamine,C$_{18}$H$_{22}$O$_{2}$
-19,1.622,121.1,0.15,,Tetrachloroethylene,C$_{2}$Cl$_{4}$
122,,619.7,,,Mucobromic acid,C$_{4}$H$_{2}$Br$_{2}$O$_{3}$
,,,,,Emetine,C$_{29}$H$_{40}$N$_{2}$O$_{4}$
,,,,,Ciprefadol,C$_{19}$H$_{27}$NO
,,,,,Clentiazem,C$_{22}$H$_{25}$ClN$_{2}$O$_{4}$S
,,,,936.64,Casuarinin,C$_{41}$H$_{28}$O$_{26}$
,,,,,Androstadienol,C$_{19}$H$_{28}$O
,,,,494.36,Hibifolin,C$_{21}$H$_{18}$O$_{14}$
,,,,,Stampidine,C$_{20}$H$_{23}$BrN$_{3}$O$_{8}$P
,,,,,Reposal,C$_{14}$H$_{18}$N$_{2}$O$_{3}$
,,,,,Tenoxicam,C$_{13}$H$_{11}$N$_{3}$O$_{4}$S$_{2}$
,,,"Slightly, with hydrolysis",155.11,Citrazinic acid,C$_{6}$H$_{5}$NO$_{4}$
,,,,740.66,Robinin,C$_{33}$H$_{40}$O$_{19}$
,,,,,Grazoprevir,C$_{38}$H$_{50}$N$_{6}$O$_{9}$S
,,,,,Copper hydride,HCu
,,,,,Eudesmic acid,C$_{10}$H$_{12}$O$_{5}$
,,,,,Hexoprenaline,C$_{22}$H$_{32}$N$_{2}$O$_{6}$
,,,,,Sovaprevir,chemical_formulaC$_{43}$H$_{53}$N$_{5}$O$_{8}$S
,,,,484.83,Chrysanthemin,"C$_{21}$H$_{21}$O$_{11}^{+}$,Cl$^{-}$"
153-157,,,,278.26,Fluorescamine,C$_{17}$H$_{10}$O$_{4}$
,,,,,Diphenhydramine,C$_{17}$H$_{21}$NO
,,,,,Oxyphenisatine,C$_{20}$H$_{15}$NO$_{3}$
2758,,5400,insoluble,210.49,Hafnium(IV) oxide,HfO$_{2}$
,,,,266.53,Magnesium benzoate,C$_{14}$H$_{10}$MgO$_{4}$
,,,,,Desmopressin,C$_{46}$H$_{64}$N$_{14}$O$_{12}$S$_{2}$
,,,,306.26,Melacacidin,C$_{15}$H$_{14}$O$_{7}$
,,,,,CLD chromophore,C$_{31}$H$_{32}$N$_{4}$O
,,,,,Quinaprilat,C$_{23}$H$_{26}$N$_{2}$O$_{5}$
,,,,,Almotriptan,C$_{17}$H$_{25}$N$_{3}$O$_{2}$S
,,,,,Iguratimod,C$_{17}$H$_{14}$N$_{2}$O$_{6}$S
235,2.429,452,60.6,97.94,Ammonium bromide,NH$_{4}$Br
86-89,,117,100,,Aminothiazole,C$_{3}$H$_{4}$N$_{2}$S
,,,,,Ononin,C$_{22}$H$_{22}$O$_{9}$
16.5,1.096,170-172,,,Diethyl phenylmalonate,C$_{13}$H$_{16}$O$_{4}$
40,,96,,,Thenoyltrifluoroacetone,C$_{8}$H$_{5}$F$_{3}$O$_{2}$S
1078,,,,286.16,Lead selenide,PbSe
,,,,,Benzyl potassium,C$_{7}$H$_{7}$K
,,,,,Imidazole-1-sulfonyl azide,C$_{3}$H$_{3}$N$_{5}$O$_{2}$S
,,,,,Diflorasone,C$_{26}$H$_{32}$F$_{2}$O$_{7}$
,,,,,Phthalane,C$_{8}$H$_{8}$O
,,,,,Levomepromazine,C$_{19}$H$_{24}$N$_{2}$OS
145,,,1,308.31,Sulisobenzone,C$_{14}$H$_{12}$O$_{6}$S
-109,,,,,Thiirane,C$_{2}$H$_{4}$S
,,,,236.35,Hernandulcin,C$_{15}$H$_{24}$O$_{2}$
-40,0.796,109,,,Di-tert-butyl peroxide,C$_{8}$H$_{18}$O$_{2}$
,,,,,Ebastine,C$_{32}$H$_{39}$NO$_{2}$
89,,,,2880.2,Phosphotungstic acid,H$_{3}$PW$_{12}$O$_{40}$
,,,,,Fenoverine,C$_{26}$H$_{15}$N$_{3}$O$_{3}$S
106-110,,309,,203.24,Ampyrone,C$_{11}$H$_{13}$N$_{3}$O
,,,,,Monomagnesium phosphate,MgH$_{4}$P$_{2}$O$_{8}$
57,1.9081,98,very soluble,,Chloral hydrate,C$_{2}$H$_{3}$Cl$_{3}$O$_{2}$
,,215,<5,,Perfluorotripentylamine,C$_{15}$F$_{33}$N
,,,,,WIN 54 461,
858,,,22.17,183.908,Sodium orthovanadate,Na$_{3}$VO$_{4}$
,,,,336,Chlorethoxyfos,C$_{6}$H$_{11}$Cl$_{4}$O$_{3}$PS
,3.3,,"Insoluble in water, pH 6.9",,Zinc chloride hydroxide monohydrate,Zn$_{5}$(OH)$_{8}$Cl$_{2}$.H$_{2}$O
2235,2.45,,insoluble,104.94,Calcium hexaboride,CaB$_{6}$
,,,,259.8336128,Tungsten(IV) fluoride,MgC$_{2}$O$_{4}$MgC$_{2}$O$_{4}$.2H$_{2}$O(Dihydrate)
,,,,,Ranbezolid,C$_{14}$H$_{17}$N$_{5}$
,,,,,Tilisolol,C$_{17}$H$_{24}$N$_{2}$O$_{3}$
,,,,,Potassium hexafluoronickelate(IV),K$_{2}$NiF$_{6}$
,,,,,Tramadol,C$_{16}$H$_{25}$NO$_{2}$
,,,,,Bemesetron,C$_{15}$H$_{17}$Cl$_{2}$NO$_{2}$
178,(22 C) 1.560,,3x10$^{-6}$,,Novaluron,C$_{21}$H$_{26}$FNO$_{3}$
,,,,,Glafenine,C$_{19}$H$_{17}$ClN$_{2}$O$_{4}$
,,,,,Tampramine,C$_{27}$H$_{28}$N$_{4}$O$_{4}$
170,,,,,Fludeoxyglucose (18F),C$_{6}$H$^{18}_{11}$FO$_{5}$
202-204,,,Low in water. Soluble in ethanol.,,Osladin,C$_{45}$H$_{74}$O$_{17}$
,,,,,Vestipitant,C$_{23}$H$_{21}$F$_{10}$N$_{3}$O
,,,,,Emepronium bromide,
,,,,366.48,Glibornuride,C$_{18}$H$_{26}$N$_{2}$O$_{4}$S
,,,,,LY-341 495,
,,,,194.704,Tin(IV) fluoride,SnF$_{4}$
-51,,92,"Soluble in alcohol and ether, slightly soluble in water",,Isovaleraldehyde,C$_{5}$H$_{10}$O
,,,,,Aminophenazone,C$_{13}$H$_{17}$N$_{3}$O
,,,,,Saripidem,C$_{19}$H$_{20}$ClN$_{3}$O
,,,,,Ribostamycin,C$_{17}$H$_{34}$N$_{4}$O$_{10}$
,,,,164.16,O-Coumaric acid,C$_{9}$H$_{8}$O$_{3}$
,,,,262.35,Cibenzoline,C$_{18}$H$_{18}$N$_{2}$
,,,,627-655,Stearyl palmityl tartrate,C$_{40}$H$_{74}$O$_{6}$TOC$_{38}$H$_{78}$O$_{6}$
,1.46,,,,Ethyl sulfate,C$_{2}$H$_{6}$O$_{4}$S
300,4.98,,,333.81,Iodine pentoxide,I$_{2}$O$_{5}$
,,,,,Bedaquiline,CnHm
172-173,0.889,660.9,insoluble,,Lycopene,C$_{40}$H$_{56}$