Name,formula,Property Molar Mass,Property Molar Mass units,Property Melting Point,Property Melting Point units,Property Density,Property Density units,Property Boiling Point,Property Boiling Point units,Property Solubility
Ilaprazole,C$_{19}$H$_{18}$N$_{4}$O$_{2}$S,,,,,,,,,
N-Octyl bicycloheptene dicarboximide,C$_{17}$H$_{25}$NO$_{2}$,275.386,g/mol,,,,,,,
Indicaxanthin,C$_{14}$H$_{16}$N$_{2}$O$_{6}$,308.29,g/mol,,,,,,,
Dysprosium acetylacetonate,DyC$_{15}$H$_{21}$O$_{6}$,,,,,,,,,
Theaflavin-3-gallate,C$_{36}$H$_{28}$O$_{16}$,716.59,g/mol,,,,,,,
Homopipramol,C$_{24}$H$_{25}$N$_{3}$O,,,,,,,,,
Tris(2-chloroethyl) phosphate,C$_{6}$H$_{12}$Cl$_{3}$O$_{4}$P,,,,,,,192,$^{\circ}$C,
Ziprasidone,C$_{21}$H$_{21}$ClN$_{4}$OS,,,,,,,,,
Neridronic acid,,,,,,,,,,
Idrocilamide,C$_{11}$H$_{13}$NO$_{2}$,,,,,,,,,
Valerenic acid,C$_{15}$H$_{22}$O$_{2}$,,,,,,,,,
Propylthiouracil,C$_{7}$H$_{10}$N$_{2}$OS,,,,,,,,,
Lariciresinol,C$_{20}$H$_{24}$O$_{6}$,360.40,g/mol,,,,,,,
Europium(III) chloride,EuCl$_{3}$,258.323,g/mol,632,$^{\circ}$C,,,,,
JWH-302,C$_{22}$H$_{25}$NO$_{2}$,,,,,,,,,
Esomeprazole,C$_{17}$H$_{19}$N$_{3}$O$_{3}$S,,,,,,,,,
Temsirolimus,C$_{56}$H$_{87}$NO$_{16}$,,,,,,,,,
Acedapsone,C$_{16}$H$_{16}$N$_{2}$O$_{4}$S,,,290,$^{\circ}$C,,,,,
Fanetizole,C$_{17}$H$_{16}$N$_{2}$S,,,,,,,,,
Trifluperidol,C$_{22}$H$_{23}$F$_{4}$NO$_{2}$,,,,,,,,,
Allylcyclopentane,C$_{8}$H$_{14}$,,,-111,$^{\circ}$C,,,127,$^{\circ}$C,insoluble
Azadirachtin,C$_{35}$H$_{44}$O$_{16}$,720.714,g/mol,,,,,,,
Methyl anthranilate,C$_{8}$H$_{9}$NO$_{2}$,,,24,$^{\circ}$C,,,256,$^{\circ}$C,
Benzyl fluoride,C$_{7}$H$_{7}$F,110.129,g/mol,-35,$^{\circ}$C,1.0228,g/cm$^{3}$,140,$^{\circ}$C,
EA-3148,C$_{12}$H$_{26}$NO$_{2}$PS,279.378,g/mol,,,,,111.11,$^{\circ}$C,
N N'-Di-n-butylthiourea,C$_{9}$H$_{20}$N$_{2}$S,,,64-67,$^{\circ}$C,,,,,
Nysted reagent,C$_{6}$H$_{12}$Br$_{2}$OZn$_{3}$,456.14,g/mol,,,,,,,
Miglitol,C$_{8}$H$_{17}$NO$_{5}$,,,,,,,,,
Xipamide,C$_{15}$H$_{15}$ClN$_{2}$O$_{4}$S,,,,,,,,,
Phosphonium,PH$^{+}_{4}$,,,,,,,,,
Thorin (chemistry),C$_{16}$H$_{11}$AsN$_{2}$O$_{10}$S$_{2}$,,,300,$^{\circ}$C,,,,,
Bromobenzyl cyanide,C$_{8}$H$_{6}$BrN,,,,,,,,,
Fructose 1 6-bisphosphate,C$_{6}$H$_{14}$O$_{12}$P$_{2}$,,,,,,,,,
Aloxiprin,C$_{18}$H$_{15}$O$_{9}$,,,,,,,,,
Nilutamide,C$_{12}$H$_{10}$F$_{3}$N$_{3}$O$_{4}$,,,,,,,,,
Diisononyl phthalate,C$_{26}$H$_{42}$O$_{4}$,418.609,g/mol,-43,$^{\circ}$C,0.98,g/cm$^{3}$,244-252,$^{\circ}$C,<0.01
LR-5182,C$_{17}$H$_{23}$Cl$_{2}$N,,,,,,,,,
Clidinium bromide,,,,,,,,,,
Cefalonium,C$_{20}$H$_{18}$N$_{4}$O$_{5}$S$_{2}$,,,,,,,,,
Glycinol (pterocarpan),C$_{15}$H$_{12}$O$_{5}$,272.25,g/mol,,,,,,,
Triethylene glycol,C$_{6}$O$_{4}$H$_{14}$,,,-7,$^{\circ}$C,,,285,$^{\circ}$C,
Insulin detemir,,,,,,,,,,
HT-0712,C$_{25}$H$_{31}$NO$_{3}$,,,,,,,,,
BD1060,C$_{14}$H$_{20}$N$_{2}$Cl$_{2}$,,,,,,,,,
Carnitine,C$_{7}$H$_{15}$NO$_{3}$,,,,,,,,,
Igmesine,C$_{23}$H$_{29}$N,,,,,,,,,
Alanine,C$_{3}$H$_{7}$NO$_{2}$,,,258,$^{\circ}$C,1.424,g/cm$^{3}$,,,167.2
Thienamycin,C$_{11}$H$_{16}$N$_{2}$O$_{4}$S,272.32,g/mol,,,,,,,
Xanthydrol,C$_{13}$H$_{10}$O$_{2}$,,,124,$^{\circ}$C,,,,,
MOPS,C$_{7}$H$_{15}$NO$_{4}$S,,,,,,,,,
Macelignan,C$_{20}$H$_{24}$O$_{4}$,328.40,g/mol,,,,,,,
Azo violet,C$_{12}$H$_{9}$N$_{3}$O$_{4}$,,,,,1.45,g/cm$^{3}$,,,1
Metabutethamine,C$_{13}$H$_{20}$N$_{2}$O$_{2}$,,,,,,,,,
Saclofen,C$_{9}$H$_{12}$ClNO$_{3}$S,,,,,,,,,
Acylfulvene,C$_{14}$H$_{16}$O$_{2}$,216.28,g/mol,,,,,,,
Desmosterol,C$_{27}$H$_{44}$O,384.64,g/mol,121.5,$^{\circ}$C,,,,,
Iridium hexafluoride,IrF$_{6}$,306.22,g/mol,44,$^{\circ}$C,,,53.6,$^{\circ}$C,
Aspartylglucosamine,C$_{12}$H$_{21}$N$_{3}$O$_{8}$,335.31,g/mol,,,,,,,
Hydroxylated lecithin,C$_{44}$H$_{88}$NO$_{10}$P,,,,,,,,,
Hepoxilin,C$_{20}$H$_{32}$O$_{4}$,336.47,g/mol,,,,,,,
Hexafluoro-2-butyne,C$_{4}$F$_{6}$,162.03,g/mol,-117,$^{\circ}$C,1.602,g/cm$^{3}$,-25,$^{\circ}$C,Insoluble
Ganaxolone,C$_{22}$H$_{36}$O$_{2}$,,,,,,,,,
Lithium bis(trimethylsilyl)amide,C$_{6}$H$_{18}$LiNSi$_{2}$,167.326,g/mol,71-72,$^{\circ}$C,,,80-84,$^{\circ}$C,decomposes
Butobarbital,C$_{10}$H$_{16}$N$_{2}$O$_{3}$,,,,,,,,,
RS-127445,C$_{17}$H$_{16}$FN$_{3}$,,,,,,,,,
Etamivan,C$_{12}$H$_{17}$NO$_{3}$,,,,,,,,,
Decarboxylated 8 5'-diferulic acid,C$_{19}$H$_{18}$O$_{6}$,,,,,,,,,
Lufenuron,C$_{17}$H$_{8}$Cl$_{2}$F$_{8}$N$_{2}$O$_{3}$,,,174,$^{\circ}$C,,,,,
Cinacalcet,C$_{22}$H$_{22}$F$_{3}$N,,,,,,,,,
Cloridarol,C$_{15}$H$_{11}$ClO$_{2}$,,,,,,,,,
Magnesium citrate,C$_{6}$H$_{6}$MgO$_{7}$,,,,,,,,,20
Pirquinozol,C$_{11}$H$_{9}$N$_{3}$O$_{2}$,,,,,,,,,
Cefaclor,C$_{15}$H$_{14}$ClN$_{3}$O$_{4}$S,,,,,,,,,
Xanthohumol,C$_{21}$H$_{22}$O$_{5}$,,,157-159,$^{\circ}$C,1.24,g/cm$^{3}$,,,
Terflavin B,C$_{34}$H$_{24}$O$_{22}$,784.54,g/mol,,,,,,,
Metenolone enanthate,,,,,,,,,,
Citicoline,C14H27N4O11P2charge+,,,,,,,,,
Xantphos,C$_{39}$H$_{32}$OP$_{2}$,578.62,g/mol,224-228,$^{\circ}$C,,,,,organic solvents
Methylthioninium chloride,,,,,,,,,,
Calcium glubionate,,,,,,,,,,
Dichloramine,NCl$_{2}$H,,,,,,,,,
Potassium acetate,C$_{2}$H$_{3}$O$_{2}$K,,,292,$^{\circ}$C,1.8,g/cm$^{3}$,,,216.7
Trioctylphosphine,C$_{24}$H$_{51}$P,,,,,,,284-291,$^{\circ}$C,
Gramine,C$_{11}$H$_{14}$N$_{2}$,174.24,g/mol,138-139,$^{\circ}$C,,,,,
Tetrabutylammonium tribromide,C$_{16}$H$_{36}$Br$_{3}$N,,,71-76,$^{\circ}$C,,,,,
Disulfur dioxide,S$_{2}$O$_{2}$,96.1299,g/mol,,,,,,,
Emopamil,C$_{23}$H$_{30}$N$_{2}$,334.50,g/mol,,,,,,,
Calcium gluconate,C$_{12}$H$_{22}$CaO$_{14}$,430.373,g/mol,120,$^{\circ}$C,,,,,slowly soluble
Diphenylethylenediamine,C$_{14}$H$_{16}$N$_{2}$,212.29,g/mol,79-83,$^{\circ}$C,,,,,Slightly
Ezlopitant,C$_{31}$H$_{38}$N$_{2}$O,,,,,,,,,
Scopoletin,C$_{10}$H$_{8}$O$_{4}$,192.16,g/mol,,,,,,,
Seyferth-Gilbert homologation,C$_{5}$H$_{9}$N$_{2}$O$_{4}$P,,,,,,,,,
Fluometuron,C$_{10}$H$_{11}$F$_{3}$N$_{2}$O,,,163,$^{\circ}$C,1.39,g/cm$^{3}$,,,90
Isoindole,C$_{8}$H$_{7}$N,117.15,g/mol,,,,,,,
Lithium chloride,LiCl,,,605-614,$^{\circ}$C,2.068,g/cm$^{3}$,1382,$^{\circ}$C,68.29
Sebacoyl chloride,C$_{10}$H$_{16}$Cl$_{2}$O$_{2}$,239.14,g/mol,-2.5,$^{\circ}$C,,,220,$^{\circ}$C,
Wighteone,C$_{20}$H$_{18}$O$_{5}$,338.35,g/mol,,,,,,,
P-Anisic acid,C$_{8}$H$_{8}$O$_{3}$,,,184,$^{\circ}$C,1.385,g/cm$^{3}$,275-280,$^{\circ}$C,1
Triphenylmethyl hexafluorophosphate,C$_{19}$H$_{15}$F$_{6}$P,388.31,g/mol,145,$^{\circ}$C,,,,,
Benzatropine,C$_{21}$H$_{25}$NO,,,,,,,,,
M-Anisidine,C$_{7}$H$_{9}$NO,123.15,g/mol,0,$^{\circ}$C,,,251,$^{\circ}$C,
Tetraphenyl butadiene,C$_{28}$H$_{22}$,358.475,g/mol,203.5,$^{\circ}$C,,,556.1,$^{\circ}$C,
Thunberginol C,C$_{15}$H$_{12}$O$_{5}$,272.25,g/mol,,,,,,,
Gadofosveset,C$_{20}$H$_{24}$BrN$_{3}$O,,,,,,,,,
Trimethoxyamphetamine,C$_{21}$H$_{26}$ClNO,,,,,,,,,
Benazepril,C$_{24}$H$_{28}$N$_{2}$O$_{5}$,,,,,,,,,
Tadalafil,C$_{22}$H$_{19}$N$_{3}$O$_{4}$,,,,,,,,,
Reticuline,C$_{19}$H$_{23}$NO$_{4}$,,,,,,,,,
Baclofen,C$_{10}$H$_{12}$ClNO$_{2}$,,,,,,,,,
Melitracen,C$_{21}$H$_{25}$N,,,,,,,,,
MitoQ,C$_{38}$H$_{47}$O$_{7}$PS,,,,,,,,,
Radon difluoride,F$_{2}$Rn,,,,,,,,,
Melatonin,C$_{13}$H$_{16}$N$_{2}$O$_{2}$,,,,,,,,,
Flubendazole,C$_{16}$H$_{12}$FN$_{3}$O$_{3}$,,,260,$^{\circ}$C,,,,,
Oxolinic acid,,,,,,,,,,
GW-405 833,,,,,,,,,,
Procymate,C$_{10}$H$_{19}$O$_{2}$,,,,,,,,,
Ammonium sulfite,(NH$_{4}$)$_{2}$SO$_{3}$,116.14,g/mol,65,$^{\circ}$C,,,,,35
Sulbutiamine,C$_{32}$H$_{46}$N$_{8}$O$_{6}$S$_{2}$,,,,,,,,,
Broxyquinoline,C$_{9}$H$_{5}$Br$_{2}$NO,,,,,,,,,
Bezafibrate,C$_{19}$H$_{20}$ClNO$_{4}$,,,,,,,,,
BHF-177,C$_{19}$H$_{20}$F$_{3}$N$_{3}$,,,,,,,,,
VUF-8430,C$_{4}$H$_{11}$N$_{5}$S,,,,,,,,,
Fluorobenzene,C$_{6}$H$_{5}$F,,,-44,$^{\circ}$C,,,84-85,$^{\circ}$C,low
Lutetium(III) oxide,Lu$_{2}$O$_{3}$,397.932,g/mol,2490,$^{\circ}$C,,,3980,$^{\circ}$C,
N-Methyl-D-aspartic acid,C$_{5}$H$_{9}$NO$_{4}$,,,189,$^{\circ}$C,,,,,
Iodous acid,HIO$_{2}$,,,,,,,,,
Treosulfan,C$_{6}$H$_{14}$O$_{8}$S$_{2}$,,,,,,,,,
Trioctylmethylammonium bis(trifluoromethylsulfonyl)imide,C$_{27}$N$_{2}$H$_{54}$O$_{4}$S$_{2}$F$_{6}$,,,,,,,,,
Magnesium polonide,MgPo,233.29,g/mol,,,,,,,
Scoulerine,C$_{19}$H$_{21}$NO$_{4}$,327.37,g/mol,,,,,,,
Metofoline,C$_{20}$H$_{24}$ClNO$_{2}$,,,,,,,,,
Irbesartan,C$_{25}$H$_{28}$N$_{6}$O,,,,,,,,,
Daptomycin,C$_{72}$H$_{101}$N$_{17}$O$_{26}$,,,,,,,,,
Mercury(II) oxide,HgO,,,500,$^{\circ}$C,11.14,g/cm$^{3}$,,,0.0053
Calcium phosphide,Ca$_{3}$P$_{2}$,182.18,g/mol,~1600,$^{\circ}$C,2.51,g/cm$^{3}$,,,decomposes
Tretinoin,C$_{20}$H$_{28}$O$_{2}$,,,,,,,,,
Tert-Butylthiol,C$_{4}$H$_{10}$S,,,-0.50,$^{\circ}$C,,,62,$^{\circ}$C,
Acetaminosalol,C$_{15}$NH$_{13}$O$_{4}$,,,,,,,,,
Hexylresorcinol,C$_{12}$H$_{18}$O$_{2}$,,,,,,,,,
Mepacrine,C$_{23}$H$_{30}$ClN$_{3}$O,,,,,,,,,
Ribulose-1 5-bisphosphate,C$_{5}$H$_{12}$O$_{11}$P$_{2}$,310.09,g/mol,,,,,,,
Methylidenecarbene,C$_{2}$H$_{2}$,,,,,,,,,hydrolyses
Silver acetate,AgC$_{2}$H$_{3}$O$_{2}$,166.912,g/mol,,,,,decomposes at 220,$^{\circ}$C,1.02
Escitalopram,C$_{20}$H$_{21}$FN$_{2}$O,,,,,,,,,
RS-56812,C$_{18}$H$_{21}$N$_{3}$O$_{2}$,,,,,,,,,
Ombitasvir,C$_{50}$H$_{67}$N$_{7}$O$_{8}$,,,,,,,,,
Adosterol,C$_{27}$H$_{45}$IO,512.55,g/mol,,,,,,,
Eplerenone,C$_{24}$H$_{30}$O$_{6}$,,,,,,,,,
Z-FA-FMK,C$_{21}$H$_{23}$FN$_{2}$O$_{4}$,,,,,1.207,g/cm$^{3}$,,,
ADX-71149,C$_{19}$H$_{15}$ClFNO$_{2}$,,,,,,,,,
Amcinonide,C$_{28}$H$_{35}$FO$_{7}$,,,,,,,,,
Levoverbenone,C$_{10}$H$_{14}$O,,,,,,,,,
Fluoran,C$_{20}$H$_{12}$O$_{3}$,,,,,,,,,
Penitrem A,C$_{37}$H$_{44}$ClNO$_{6}$,,,,,,,,,
Rubidium-82 chloride,ClRb,,,,,,,,,
Parachlorobenzotrifluoride,C$_{7}$H$_{4}$ClF$_{3}$,180.56,g/mol,-36,$^{\circ}$C,,,139,$^{\circ}$C,0
Protocatechuic aldehyde,C$_{7}$H$_{6}$O$_{3}$,138.12,g/mol,,,,,,,
Eriochrome Black T,C$_{20}$H$_{12}$N$_{3}$O$_{7}$SNa,461.381,g/mol,,,,,,,
Diethyl carbonate,C$_{5}$H$_{10}$O$_{3}$,118.13,g/mol,-43,$^{\circ}$C,0.975,g/cm$^{3}$,126-128,$^{\circ}$C,Insoluble
Epanolol,C$_{20}$H$_{23}$N$_{3}$O$_{4}$,,,,,,,,,
Terconazole,C$_{26}$H$_{31}$Cl$_{2}$N$_{5}$O$_{3}$,,,,,,,,,
Isometheptene,C$_{9}$H$_{19}$N,,,,,,,,,
Oxcarbazepine,C$_{15}$H$_{12}$N$_{2}$O$_{2}$,,,,,,,,,
LPK-26,C$_{18}$H$_{24}$Cl$_{2}$N$_{2}$O,,,,,,,,,
Cumene hydroperoxide,C$_{9}$H$_{12}$O$_{2}$,,,-9,$^{\circ}$C,1.02,g/cm$^{3}$,153,$^{\circ}$C,1.5
Phenamidine,C$_{14}$H$_{14}$N$_{4}$O,,,215,$^{\circ}$C,,,,,
Coutaric acid,C$_{13}$H$_{12}$O$_{8}$,,,,,,,,,
Dihydropteroate,C$_{14}$H$_{14}$N$_{6}$O$_{3}$,314.3,g/mol,,,,,,,
Nitrosylsulfuric acid,HNO$_{5}$S,127.08,g/mol,73.5,$^{\circ}$C,,,,,decomposes
Benzotrichloride,C$_{7}$H$_{5}$Cl$_{3}$,,,-5.0,$^{\circ}$C,,,220.8,$^{\circ}$C,0.05g/L
Valoneic acid dilactone,C$_{21}$H$_{10}$O$_{13}$,470.28,g/mol,,,,,,,
Dazopride,C$_{15}$H$_{23}$ClN$_{4}$O$_{2}$,,,,,,,,,
Pteridine,C$_{6}$H$_{4}$N$_{4}$,,,,,,,,,
Thialbarbital,C$_{13}$H$_{16}$N$_{2}$O$_{2}$S,,,,,,,,,
Deoxyguanosine diphosphate,C$_{10}$H$_{15}$N$_{5}$O$_{10}$P$_{2}$,,,,,,,,,
Hydroxyproline,C$_{5}$H$_{9}$NO$_{3}$,,,,,,,,,
Estramustine,C$_{23}$H$_{31}$Cl$_{2}$NO$_{3}$,,,,,,,,,
Technetium (99mTc) medronic acid,,,,,,,,,,
Norbaeocystin,C$_{10}$H$_{13}$N$_{2}$O$_{4}$P,,,,,,,,,
Thorium(IV) sulfide,ThS$_{2}$,296.17,g/mol,1905,$^{\circ}$C,,,,,
Octafluoropropane,C$_{3}$F$_{8}$,188.02,g/mol,-183,$^{\circ}$C,,,-36.7,$^{\circ}$C,
Tris(2 3-dibromopropyl) phosphate,C$_{9}$H$_{15}$Br$_{6}$O$_{4}$P,,,,,2.24,g/cm$^{3}$,,,Insoluble
Triphenylene,C$_{18}$H$_{12}$,,,,,,,,,
Oleuropein,C$_{25}$H$_{32}$O$_{13}$,540.51,g/mol,,,,,,,
Tert-Butylamine,C$_{4}$H$_{11}$N,,,,,,,,,Miscible
Diethylene glycol diethyl ether,C$_{8}$H$_{18}$O$_{3}$,162.22,g/mol,,,,,,,
Sodium hyponitrite,Na$_{2}$N$_{2}$O$_{2}$,105.99,g/mol,100,$^{\circ}$C,2.466,g/cm$^{3}$,335,$^{\circ}$C,soluble
O-Acetylserine,C$_{5}$H$_{9}$NO$_{4}$,,,,,,,,,
Lithium tungstate,Li$_{2}$O$_{4}$W,,,,,4.56,g/cm$^{3}$,,,
Bixin,C$_{25}$H$_{30}$O$_{4}$,,,,,,,,,Insoluble
Hydrogen cyanide,HCN,,,,,,,,,
Nimbin (chemical),C$_{30}$H$_{36}$O$_{9}$,,,205,$^{\circ}$C,,,,,
Pentoxifylline,C$_{13}$H$_{18}$N$_{4}$O$_{3}$,,,,,,,,,
AR-231 453,,,,,,,,,,
Anthranilic acid,C$_{7}$H$_{7}$NO$_{2}$,,,146-148,$^{\circ}$C,1.412,g/cm$^{3}$,200,$^{\circ}$C,0.572
Dobutamine,C$_{18}$H$_{23}$NO$_{3}$,,,,,,,,,
Asenapine,C$_{17}$H$_{16}$ClNO,,,,,,,,,
Dexibuprofen,C$_{13}$H$_{18}$O$_{2}$,,,,,,,,,
Indican,C$_{14}$H$_{17}$NO$_{6}$,295.29,g/mol,,,,,,,
Viloxazine,C$_{13}$H$_{19}$NO$_{3}$,,,,,,,,,
Diallyl disulfide,C$_{6}$H$_{10}$S$_{2}$,146.28,g/mol,,,1.01,g/cm$^{3}$,180,$^{\circ}$C,soluble in ethanol and oils
Metribuzin,C$_{8}$H$_{14}$N$_{4}$OS,214.28,g/mol,125,$^{\circ}$C,1.31,g/cm$^{3}$,,,0.1% (20$^{\circ}$C)
Lithium aluminate,AlLiO$_{2}$,,,1625,$^{\circ}$C,2.615,g/cm$^{3}$,,,insoluble
Cobalt(II) nitrate,Co(NO$_{3}$)$_{2}$,182.943,g/mol,100,$^{\circ}$C,2.49,g/cm$^{3}$,100-105,$^{\circ}$C,anhydrous: 84.03
Ciclopirox,C$_{12}$H$_{17}$NO$_{2}$,,,,,,,,,
Enocitabine,C$_{31}$H$_{55}$N$_{3}$O$_{6}$,,,,,,,,,
Ampelopsin B,C$_{28}$H$_{22}$O$_{6}$,,,,,,,,,
Oxaloacetic acid,C$_{4}$H$_{4}$O$_{5}$,132.07,g/mol,161,$^{\circ}$C,0.18,g/cm$^{3}$,,,
Cyphostemmin B,C$_{28}$H$_{22}$O$_{6}$,454.47,g/mol,,,,,,,
Dihydroxymalonic acid,C$_{3}$H$_{4}$O$_{6}$,,,119-120,$^{\circ}$C,,,,,
Cyclopentanol,C$_{5}$H$_{10}$O,86.1323,g/mol,-19,$^{\circ}$C,,,139-140,$^{\circ}$C,
Lithium nitrite,LiNO$_{2}$,52.9465,g/mol,222,$^{\circ}$C,,,,,
Tripamide,C$_{16}$H$_{20}$ClN$_{3}$O$_{3}$S,,,,,,,,,
Dithionous acid,H$_{2}$S$_{2}$O$_{4}$,130.144,g/mol,,,,,,,
Indium(III) chloride,InCl$_{3}$,221.18,g/mol,586,$^{\circ}$C,3.46,g/cm$^{3}$,800,$^{\circ}$C,
Dapagliflozin,C$_{21}$H$_{25}$ClO$_{6}$,,,,,,,,,
Secobarbital,C$_{12}$H$_{18}$N$_{2}$O$_{3}$,,,,,,,,,
Pendimethalin,C$_{13}$H$_{19}$N$_{3}$O$_{4}$,,,47-58,$^{\circ}$C,1.17,g/cm$^{3}$,330,$^{\circ}$C,0.275
Tetrahydrocannabivarin,C$_{19}$H$_{26}$O$_{2}$,,,,,,,,,
UK-414 495,,,,,,,,,,
Fenvalerate,C$_{25}$H$_{22}$ClNO$_{3}$,,,,,1.175,g/cm$^{3}$,,,2
Iron(III) bromide,FeBr$_{3}$,,,200,$^{\circ}$C,,,,,
Nimesulide,C$_{13}$H$_{12}$N$_{2}$O$_{5}$S,,,,,,,,,
Hydroxystenozole,C$_{21}$H$_{30}$N$_{2}$O,326.48,g/mol,,,,,,,
Mead acid,C$_{20}$H$_{34}$O$_{2}$,,,,,,,,,
Imexon,C$_{4}$H$_{5}$N$_{3}$O,,,,,,,,,
Androstenedione,C$_{19}$H$_{26}$O$_{2}$,,,,,,,,,
JNJ-7777120,C$_{14}$H$_{16}$ClN$_{3}$O,,,,,,,,,
Uridine triphosphate,C$_{9}$H$_{15}$N$_{2}$O$_{15}$P$_{3}$,,,,,,,,,
Paromomycin,C$_{23}$H$_{47}$N$_{5}$O$_{18}$S,,,,,,,,,
ICI-199 441,,,,,,,,,,
Cycloheptanone,C$_{7}$H$_{12}$O,,,,,,,,,
Naphazoline,C$_{14}$H$_{14}$N$_{2}$,,,,,,,,,
Neodymium(III) oxide,Nd$_{2}$O$_{3}$,336.48,g/mol,2233,$^{\circ}$C,7.24,g/cm$^{3}$,3760,$^{\circ}$C,.0003
Pravadoline,C$_{23}$H$_{26}$N$_{2}$O$_{3}$,,,,,,,,,
Metrizamide,C$_{18}$H$_{22}$I$_{3}$N$_{3}$O$_{8}$,,,,,,,,,
Cefazedone,C$_{18}$H$_{15}$Cl$_{2}$N$_{5}$O$_{5}$S$_{3}$,,,,,,,,,
Potassium ferrocyanide,C$_{6}$N$_{6}$FeK$_{4}$,368.35,g/mol,69-71,$^{\circ}$C,1.85,g/cm$^{3}$,400,$^{\circ}$C,28.9
Tianeptine,C$_{21}$H$_{25}$ClN$_{2}$O$_{4}$S,,,,,,,,,
Iridium(V) fluoride,IrF$_{5}$,287.209,g/mol,104.5,$^{\circ}$C,,,,,
Procyanidin B6,C$_{30}$H$_{26}$O$_{12}$,578.52,g/mol,,,,,,,
Moperone,C$_{22}$H$_{26}$FNO$_{2}$,,,,,,,,,
Flurothyl,C$_{4}$H$_{4}$F$_{6}$O,,,,,1.404,g/cm$^{3}$,62,$^{\circ}$C,
Propylketobemidone,C$_{16}$H$_{23}$NO$_{2}$,,,,,,,,,
Ritipenem,C$_{18}$H$_{21}$N$_{3}$O$_{2}$,,,,,,,,,
Cefpimizole,C$_{28}$H$_{26}$N$_{6}$O$_{10}$S$_{2}$,,,,,,,,,
Potassium hydroxide,KOH,,,406,$^{\circ}$C,2.044,g/cm$^{3}$,1327,$^{\circ}$C,85
Ractopamine,C$_{18}$H$_{23}$NO$_{3}$,,,,,,,,,4100
Pitofenone,C$_{22}$H$_{25}$NO$_{4}$,367.44,g/mol,,,,,,,
Benzothiazole,C$_{7}$H$_{5}$NS,135.1863,g/mol,2,$^{\circ}$C,,,227,$^{\circ}$C,
Isoguanine,C$_{5}$H$_{5}$N$_{5}$O,,,,,,,,,
Nordazepam,C$_{15}$H$_{11}$ClN$_{2}$O,,,,,,,,,
Gibberellic acid,C$_{19}$H$_{22}$O$_{6}$,346.37,g/mol,233-235,$^{\circ}$C,,,,,5
Ephedrine,C$_{10}$H$_{15}$NO,,,,,,,,,
Bromine monochloride,BrCl,115.357,g/mol,-54,$^{\circ}$C,2.172,g/cm$^{3}$,5,$^{\circ}$C,
Amidorphin,C$_{131}$H$_{200}$N$_{30}$O$_{43}$S$_{2}$,2947.29,g/mol,,,,,,,
Methyclothiazide,C$_{9}$H$_{11}$Cl$_{2}$N$_{3}$O$_{4}$S$_{2}$,,,,,,,,,
Barium peroxide,BaO$_{2}$,169.33,g/mol,450,$^{\circ}$C,,,800,$^{\circ}$C,anhydrous  0.091
Tetrahydrodeoxycorticosterone,C$_{21}$H$_{34}$O$_{3}$,,,,,,,,,
Perfluoromethyldecalin,C$_{11}$F$_{20}$,,,-70,$^{\circ}$C,,,160,$^{\circ}$C,10
Chlorquinaldol,C$_{10}$H$_{7}$Cl$_{2}$NO,228.07,g/mol,,,,,,,
Haloperidol,C$_{21}$H$_{23}$ClFNO$_{2}$,,,,,,,,,
Tigatuzumab,C$_{6406}$H$_{9924}$N$_{1716}$O$_{2012}$S$_{46}$,,,,,,,,,
Decanoic acid,C$_{10}$H$_{20}$O$_{2}$,,,31.6,$^{\circ}$C,0.893,g/cm$^{3}$,268.7,$^{\circ}$C,0.015
Adams's catalyst,PtO$_{2}$,227.08,g/mol,450,$^{\circ}$C,10.2,g/cm$^{3}$,,,insoluble
Bis(cyclooctadiene)nickel(0),C$_{16}$H$_{24}$Ni,275.06,g/mol,60,$^{\circ}$C,,,,,
Scopine,C$_{8}$H$_{13}$NO$_{2}$,,,75,$^{\circ}$C,,,,,
Benzethidine,C$_{23}$H$_{29}$NO$_{3}$,,,,,,,,,
Magnesium nickel hydride,Mg$_{2}$NiH$_{4}$,111.33,g/mol,,,2.71,g/cm$^{3}$,,,
Cardenolide,C$_{23}$H$_{34}$O$_{2}$,,,,,,,,,
L-694247,C$_{20}$H$_{21}$N$_{5}$O$_{3}$S,,,,,,,,,
Polysorbate 20,C$_{58}$H$_{114}$O$_{26}$,1227.54,g/mol,,,,,> 100,$^{\circ}$C,
Cinamolol,C$_{16}$H$_{23}$NO$_{4}$,,,,,,,,,
Barium permanganate,BaMn$_{2}$O$_{8}$,375.198,g/mol,200,$^{\circ}$C,3.77,g/cm$^{3}$,,,62.5
Verbascoside,C$_{29}$H$_{36}$O$_{15}$,,,,,,,,,
Desosamine,C$_{8}$H$_{17}$NO$_{3}$,175.23,g/mol,,,,,,,
Cinchonain-Ib,C$_{24}$H$_{20}$O$_{9}$,,,,,,,,,
Iridium tetroxide,IrO$_{4}$,256.215,g/mol,,,,,,,
Benziodarone,C$_{17}$H$_{12}$I$_{2}$O$_{3}$,,,,,,,,,
Ozolinone,C$_{11}$H$_{16}$N$_{2}$O$_{3}$S,,,,,,,,,
Cytidine monophosphate,C$_{9}$H$_{14}$N$_{3}$O$_{8}$P,,,,,,,,,
Brivaracetam,C$_{11}$H$_{20}$N$_{2}$O$_{2}$,212.15,g/mol,,,,,,,
Hafnium(IV) carbide,HfC,190.50,g/mol,3900,$^{\circ}$C,12.2,g/cm$^{3}$,,,insoluble
Tafenoquine,C$_{24}$H$_{28}$F$_{3}$N$_{3}$O$_{3}$,,,,,,,,,
Solifenacin,C$_{23}$H$_{26}$N$_{2}$O$_{2}$,,,,,,,,,
Mellitic acid,C$_{12}$H$_{6}$O$_{12}$,342.16,g/mol,,,,,,,
Visnagin,C$_{13}$H$_{10}$O$_{4}$,,,144-145,$^{\circ}$C,,,,,soluble
Metiamide,C$_{9}$H$_{16}$N$_{4}$S$_{2}$,,,,,,,,,
Sarin,C$_{4}$H$_{10}$FO$_{2}$P,,,-56,$^{\circ}$C,1.0887,g/cm$^{3}$,158,$^{\circ}$C,Miscible
Oxyphencyclimine,C$_{20}$H$_{28}$N$_{2}$O$_{3}$,,,,,,,,,
Cyanogen iodide,CNI,,,146.7,$^{\circ}$C,,,,,Reacts
Oxiracetam,C$_{6}$H$_{10}$N$_{2}$O$_{3}$,,,,,,,,,
Bradykinin,C$_{50}$H$_{73}$N$_{15}$O$_{11}$,1060.21,g/mol,,,,,,,
Tropicamide,C$_{17}$H$_{20}$N$_{2}$O$_{2}$,,,,,,,,,
Amylocaine,C$_{14}$H$_{21}$NO$_{2}$,,,,,,,,,
Salicyluric acid,,,,,,,,,,
Azasetron,C$_{17}$H$_{20}$ClN$_{3}$O$_{3}$,,,,,,,,,
Triamcinolone,C$_{21}$H$_{27}$FO$_{6}$,,,,,,,,,
Isosakuranetin,C$_{16}$H$_{14}$O$_{5}$,286.27,g/mol,,,,,,,
Manganese(II) bromide,MnBr$_{2}$,214.746,g/mol,,,4.385,g/cm$^{3}$,,,
Pinacolyl alcohol,C$_{6}$H$_{14}$O,102.174,g/mol,5.6,$^{\circ}$C,0.8122,g/cm$^{3}$,120.4,$^{\circ}$C,25
Articaine,C$_{13}$H$_{20}$N$_{2}$O$_{3}$S,,,,,,,,,
Viminol,C$_{21}$H$_{31}$ClN$_{2}$O,,,,,,,,,
Talopram,C$_{20}$H$_{25}$NO,,,,,,,,,
Selenourea,CH$_{4}$N$_{2}$Se,123.02,g/mol,214,$^{\circ}$C,,,200,$^{\circ}$C,
Amaranth (dye),C$_{20}$H$_{11}$N$_{2}$Na$_{3}$O$_{10}$S$_{3}$,,,120,$^{\circ}$C,,,,,
Mitemcinal,C$_{40}$H$_{69}$NO$_{12}$,755.98,g/mol,,,,,,,
Butenafine,C$_{23}$H$_{27}$N,,,,,,,,,
Potassium bitartrate,KC$_{4}$H$_{5}$O$_{6}$,,,,,1.05,g/cm$^{3}$,,,
Perillene,C$_{10}$H$_{14}$O,,,,,,,186,$^{\circ}$C,
Heptanoic acid,C$_{7}$H$_{14}$O$_{2}$,,,-7.5,$^{\circ}$C,0.9181,g/cm$^{3}$,223,$^{\circ}$C,0.2419
Oroidin,C$_{11}$H$_{11}$Br$_{2}$N$_{5}$O,,,,,,,,,
Buclizine,C$_{28}$H$_{33}$ClN$_{2}$,,,,,,,,,
Simazine,C$_{7}$H$_{12}$ClN$_{5}$,,,225-227,$^{\circ}$C,1.3,g/cm$^{3}$,,,5
Thiobuscaline,C$_{14}$H$_{23}$NO$_{2}$S,269.403,g/mol,,,,,,,
Bumadizone,C$_{19}$H$_{22}$N$_{2}$O$_{3}$,,,,,,,,,
Perfluoropentacene,C$_{22}$F$_{14}$,,,,,,,,,
Hexanitrostilbene,C$_{14}$H$_{6}$N$_{6}$O$_{12}$,450.23,g/mol,316,$^{\circ}$C,1.7,g/cm$^{3}$,,,
Iodine trichloride,I$_{2}$Cl$_{6}$,466.5281,g/mol,63,$^{\circ}$C,3.11,g/cm$^{3}$,,,
Verbenone,C$_{10}$H$_{14}$O,,,6.5,$^{\circ}$C,0.978,g/cm$^{3}$,227,$^{\circ}$C,
Tinidazole,C$_{8}$H$_{13}$N$_{3}$O$_{4}$S,,,,,,,,,
Aluminium(I) oxide,Al$_{2}$O,,,,,,,,,
Ytterbium(III) chloride,YbCl$_{3}$,279.40,g/mol,854,$^{\circ}$C,4.06,g/cm$^{3}$,1453,$^{\circ}$C,0.17
Aminopyralid,C$_{6}$H$_{4}$Cl$_{2}$N$_{2}$O$_{2}$,,,161.75-165.23,$^{\circ}$C,,,,,
Indium(III) bromide,InBr$_{3}$,,,420,$^{\circ}$C,4.74,g/cm$^{3}$,,,414