Name,formula,Property Molar Mass,Property Molar Mass units,Property Melting Point,Property Melting Point units,Property Density,Property Density units,Property Boiling Point,Property Boiling Point units,Property Solubility
Tosyl azide,C$_{7}$H$_{7}$N$_{3}$O$_{2}$S,,,21,$^{\circ}$C,1.286,g/cm$^{3}$,110-115,$^{\circ}$C,
Iron boride,Fe$_{2}$B,122.50,g/mol,,,,,,,insoluble
Hydrocortisone aceponate,,,,,,,,,,
Dibekacin,C$_{18}$H$_{37}$N$_{5}$O$_{8}$,,,,,,,,,
Cis-3-Hexenal,C$_{6}$H$_{10}$O,98.14,g/mol,,,0.851,g/cm$^{3}$,126,$^{\circ}$C,
Triazolam,C$_{17}$H$_{12}$Cl$_{2}$N$_{4}$,,,,,,,,,
Cetyl palmitate,C$_{32}$H$_{64}$O$_{2}$,,,54,$^{\circ}$C,,,,,
Olsalazine,C$_{14}$H$_{10}$N$_{2}$O$_{6}$,,,,,,,,,
Glyceollin I,C$_{20}$H$_{18}$O$_{5}$,338,g/mol,,,,,,,
Monocalcium phosphate,CaH$_{4}$P$_{2}$O$_{8}$,234.05,g/mol,109,$^{\circ}$C,2.220,g/cm$^{3}$,203,$^{\circ}$C,2
Ethyl caffeate,C$_{11}$H$_{12}$O$_{4}$,208.21,g/mol,,,,,,,
Ciclazindol,C$_{17}$H$_{15}$ClN$_{2}$O,,,,,,,,,
Eflornithine,C$_{6}$H$_{12}$F$_{2}$N$_{2}$O$_{2}$,,,,,,,,,
Abecarnil,C$_{24}$H$_{24}$N$_{2}$O$_{4}$,,,,,,,,,
Palmitic acid,C$_{16}$H$_{32}$O$_{2}$,,,62.9,$^{\circ}$C,0.852,g/cm$^{3}$,351-352,$^{\circ}$C,4.6
VG (nerve agent),C$_{10}$H$_{24}$NO$_{3}$PS,,,,,,,110,$^{\circ}$C,
Magnesium hydroxide,Mg(OH)$_{2}$,58.3197,g/mol,350,$^{\circ}$C,2.3446,g/cm$^{3}$,,,0.00064
Pimaric acid,C$_{20}$H$_{30}$O$_{2}$,,,,,,,,,
Pirenoxine,C$_{16}$H$_{8}$N$_{2}$O$_{5}$,,,,,,,,,
Prazitone,C$_{16}$H$_{19}$N$_{3}$O$_{3}$,,,,,,,,,
THC-O-acetate,C$_{23}$H$_{32}$O$_{3}$,,,,,,,,,
Oxyphenbutazone,C$_{19}$H$_{20}$N$_{2}$O$_{3}$,,,,,,,,,
Pyridoxal,C$_{8}$H$_{9}$NO$_{3}$,167.16,g/mol,165,$^{\circ}$C,,,,,
Ammonium hydroxide,NH$_{4}$OH,35.04,g/mol,-57.5,$^{\circ}$C,0.91,g/cm$^{3}$,37.7,$^{\circ}$C,Miscible
Amfenac,C$_{15}$H$_{13}$NO$_{3}$,,,,,,,,,
Acefylline,C$_{9}$H$_{10}$N$_{4}$O$_{4}$,,,,,,,,,
Dicyclohexylamine,C$_{5}$H$_{9}$N$_{3}$O$_{2}$,,,-0.1,$^{\circ}$C,0.912,g/cm$^{3}$,,,0.8
Chloral,C$_{2}$HCl$_{3}$O,147.388,g/mol,-57.5,$^{\circ}$C,1.404,g/cm$^{3}$,97.8,$^{\circ}$C,forms soluble hydrate
Bufothionine,C$_{12}$H$_{15}$N$_{2}$O$_{3}$S,,,,,,,,,
Fenyramidol,C$_{13}$H$_{14}$N$_{2}$O,,,,,,,,,
Lactic acid,C$_{3}$H$_{6}$O$_{3}$,,,L: 53,$^{\circ}$C,,,122,$^{\circ}$C,
Digoxin immune fab,,,,,,,,,,
Ambucetamide,C$_{17}$H$_{28}$N$_{2}$O$_{2}$,,,,,,,,,
Gold(III) oxide,Au$_{2}$O$_{3}$,,,160,$^{\circ}$C,,,,,"insoluble in water, soluble in hydrochloric and nitric acid"
Amisulpride,C$_{17}$H$_{27}$N$_{3}$O$_{4}$S,,,,,,,,,
Aminopterin,C$_{24}$H$_{40}$O$_{4}$,,,,,,,,,
Uridine diphosphate glucuronic acid,C$_{15}$H$_{22}$N$_{2}$O$_{18}$P$_{2}$,,,,,,,,,
Theaflavin digallate,C$_{43}$H$_{32}$O$_{20}$,,,,,,,,,
Vildagliptin,C$_{17}$H$_{25}$N$_{3}$O$_{2}$,,,,,,,,,
Acetylpyrazine,C$_{6}$H$_{6}$N$_{2}$O,,,75-78,$^{\circ}$C,,,78-79,$^{\circ}$C,
Pendetide,C$_{31}$H$_{47}$N$_{7}$O$_{14}$,741.318,g/mol,,,,,,,
Pyrvinium,C26H28N3charge+,,,,,,,,,
Elymoclavine,C$_{16}$H$_{18}$N$_{2}$O,,,,,,,,,
Calcium 2-aminoethylphosphate,C$_{2}$H$_{6}$CaNO$_{4}$P,179.13,g/mol,,,,,,,
Chloroacetamide,C$_{2}$H$_{4}$ClNO,,,,,,,,,
Pentacarbonylhydridomanganese,HMn(CO)$_{5}$,195.99799,g/mol,,,,,,,
Tert-Butyl formate,C$_{5}$H$_{10}$O$_{2}$,,,,,,,82-83,$^{\circ}$C,
Fenproporex,C$_{12}$H$_{16}$N$_{2}$,,,,,,,,,
N-Ethoxycarbonyl-2-ethoxy-1 2-dihydroquinoline,C$_{14}$H$_{17}$NO$_{3}$,247.29,g/mol,62-67,$^{\circ}$C,,,,,
Trimethylglycine,C$_{5}$H$_{11}$NO$_{2}$,,,180,$^{\circ}$C,,,,,Soluble
Neurokinin A,C$_{50}$H$_{80}$N$_{14}$O$_{14}$S,,,,,,,,,
Grubbs' catalyst,C$_{28}$H$_{45}$Cl$_{2}$PORu,,,195-197,$^{\circ}$C,,,,,
Dimethoxyethane,C$_{4}$H$_{10}$O$_{2}$,,,-58,$^{\circ}$C,0.8683,g/cm$^{3}$,85,$^{\circ}$C,miscible
JWH-398,C$_{24}$H$_{22}$ClNO,,,,,,,,,
Methyl gallate,C$_{8}$H$_{8}$O$_{5}$,,,,,,,,,
Trimellitic acid,C$_{9}$H$_{6}$O$_{6}$,,,,,,,,,
A-40174,C$_{26}$H$_{37}$NO$_{2}$,,,,,,,,,
Sudan Red G,C$_{17}$H$_{14}$N$_{2}$O$_{2}$,278.28,g/mol,225,$^{\circ}$C,,,,,
Cobalt(II) naphthenate,CoC$_{22}$H$_{14}$O$_{4}$,401.02,g/mol,140,$^{\circ}$C,,,>150,$^{\circ}$C,none
Hexethal,C$_{12}$H$_{19}$N$_{2}$NaO$_{3}$,,,,,,,,,
N-Benzoyl-N'-phenylurea,C$_{14}$H$_{12}$N$_{2}$O$_{2}$,,,210-213,$^{\circ}$C,,,,,
Caesium cadmium chloride,CsCdCl$_{3}$,351.675,g/mol,,,,,,,
Hydroxy $\alpha$ sanshool,C$_{16}$H$_{25}$NO$_{2}$,263.19,g/mol,,,,,,,
Peginesatide,chemical_formulaC$_{231}$H$_{350}$N$_{62}$O$_{58}$S$_{6}$[C$_{2}$H$_{4}$O]$_{n}$,,,,,,,,,
Perfluorooctanoic acid,C$_{8}$HF$_{15}$O$_{2}$,414.07,g/mol,40-50,$^{\circ}$C,1.8,g/cm$^{3}$,189-192,$^{\circ}$C,
Cysteinyldopa,C$_{12}$H$_{16}$N$_{2}$O$_{6}$S,,,,,,,,,
Fagopyrin,C$_{40}$H$_{34}$N$_{2}$O$_{8}$,670.71,g/mol,,,,,,,
Zolpidem,C$_{19}$H$_{21}$N$_{3}$O,,,,,,,,,
Sophoricoside,C$_{21}$H$_{20}$O$_{10}$,432.38,g/mol,,,,,,,
Polythiazide,C$_{11}$H$_{13}$ClF$_{3}$N$_{3}$O$_{4}$S$_{3}$,,,,,,,,,
Europinidin,C$_{17}$H$_{15}$O$^{+}_{7}$(Cl$^{-}$),331.30,g/mol,,,,,,,
Methyl formate,C$_{2}$H$_{4}$O$_{2}$,,,-100,$^{\circ}$C,0.98,g/cm$^{3}$,32,$^{\circ}$C,30% (20$^{\circ}$C)
Pristinamycin IA,C$_{45}$H$_{54}$N$_{8}$O$_{10}$,866.96,g/mol,,,,,,,
Econazole,C$_{18}$H$_{15}$Cl$_{3}$N$_{2}$O,,,,,,,,,
Perfluorodecyltrichlorosilane,CF$_{3}$(CF$_{2}$)$_{7}$(CH$_{2}$)$_{2}$SiCl$_{3}$,,,,,1.7,g/cm$^{3}$,224,$^{\circ}$C,hydrolysis
Cyclamen aldehyde,C$_{13}$H$_{18}$O,,,,,,,270,$^{\circ}$C,Insoluble
Pivmecillinam,C$_{21}$H$_{33}$N$_{3}$O$_{5}$S,,,,,,,,,
Pasireotide,C$_{58}$H$_{66}$N$_{10}$O$_{9}$,,,,,,,,,
Lanthionine,C$_{6}$H$_{12}$N$_{2}$O$_{4}$S,208.2318,g/mol,280-283,$^{\circ}$C,,,,,
Kassinin,C$_{59}$H$_{95}$N$_{15}$O$_{18}$S,,,,,,,,,
Pachypodol,C$_{18}$H$_{16}$O$_{7}$,,,,,,,,,
AM251,C$_{22}$H$_{21}$Cl$_{2}$IN$_{4}$O,,,,,,,,,
Odanacatib,C$_{25}$H$_{27}$F$_{4}$N$_{3}$O$_{3}$S,,,,,,,,,
Propylene glycol alginate,B$_{12}$H$_{12}$Cs$_{2}$,,,,,,,,,Soluble
Melittin,C$_{131}$H$_{229}$N$_{39}$O$_{31}$,,,,,,,,,
Ponesimod,C$_{23}$H$_{25}$ClN$_{2}$O$_{4}$S,,,,,,,,,
Moxidectin,C$_{37}$H$_{53}$NO$_{8}$,,,,,,,,,
Arctigenin,C$_{21}$H$_{24}$O$_{6}$,,,,,,,,,
Almorexant,C$_{29}$H$_{32}$ClF$_{3}$N$_{2}$O$_{3}$,,,,,,,,,
Dichlorophenolindophenol,C$_{12}$H$_{7}$NCl$_{2}$O$_{2}$,,,,,,,,,
Germanium dioxide,GeO$_{2}$,104.6388,g/mol,1115,$^{\circ}$C,4.228,g/cm$^{3}$,,,4.47
Chalcone,C$_{15}$H$_{12}$O,208.26,g/mol,55-57,$^{\circ}$C,1.071,g/cm$^{3}$,345-348,$^{\circ}$C,
Dimethylsilane,C$_{2}$H$_{8}$Si,,,-150,$^{\circ}$C,,,-20,$^{\circ}$C,
Fenchol,C$_{10}$H$_{18}$O,154.25,g/mol,39-45,$^{\circ}$C,0.942,g/cm$^{3}$,201,$^{\circ}$C,
Moroctocog alfa,,,,,,,,,,
Chromocene,C$_{10}$H$_{10}$Cr,,,168,$^{\circ}$C,1.43,g/cm$^{3}$,,,Insoluble
Protoanemonin,C$_{5}$H$_{4}$O$_{2}$,96.08,g/mol,,,,,45,$^{\circ}$C,
Promoxolane,C$_{10}$H$_{20}$O$_{3}$,,,,,,,,,
Etilevodopa,C$_{11}$H$_{15}$NO$_{4}$,,,,,,,,,
Enestebol,C$_{20}$H$_{28}$O$_{3}$,316.43,g/mol,,,,,,,
Para-Methoxy-N-ethylamphetamine,C$_{12}$H$_{19}$NO,,,,,,,,,
Thiocarbonic acid,CH$_{2}$S$_{3}$,110.22,g/mol,,,1.483,g/cm$^{3}$,,,
Apiose,C$_{5}$H$_{10}$O$_{5}$,150.13,g/mol,,,,,,,
Beta-D,C$_{11}$H$_{15}$D$_{2}$NO$_{3}$,213.27,g/mol,,,,,,,
Eckstolonol,C$_{18}$H$_{10}$O$_{9}$,370.27,g/mol,,,,,,,
Furanomycin,C$_{7}$H$_{11}$NO$_{3}$,,,,,,,305.6,$^{\circ}$C,
Copper(I) fluoride,CuF,,,,,,,,,
Ro60-0213,C$_{15}$H$_{20}$N$_{2}$O,,,,,,,,,
Bibrocathol,C$_{6}$HBiBr$_{4}$O$_{3}$,,,,,,,,,
Thallium triiodide,TlI$_{3}$,585.097,g/mol,,,,,,,
Benzisoxazole,C$_{33}$H$_{44}$N$_{4}$O$_{6}$,,,,,,,,,
Triiron dodecacarbonyl,Fe$_{3}$(CO)$_{12}$,503.66,g/mol,165,$^{\circ}$C,,,,,insoluble
Antimony pentoxide,Sb$_{2}$O$_{5}$,323.517,g/mol,380,$^{\circ}$C,,,,,0.3
Zolimidine,C$_{14}$H$_{12}$N$_{2}$O$_{2}$S,272.32,g/mol,,,,,,,
Tiletamine,C$_{12}$H$_{17}$NOS,,,,,,,,,
D&amp,C$_{16}$H$_{11}$N$_{3}$O$_{7}$S$_{2}$Na$_{2}$,,,,,,,,,
Isopentane,C$_{5}$H$_{12}$,,,,,,,,,
Alpha-Pyrrolidinopentiophenone,C$_{15}$H$_{21}$NO,,,,,,,,,
Merocyanine,C$_{26}$H$_{32}$N$_{3}$NaO$_{7}$S,553.60,g/mol,,,,,,,
Alpha-Viniferin,C$_{42}$H$_{30}$O$_{9}$,,,,,,,,,
Yohimbine,C$_{21}$H$_{26}$N$_{2}$O$_{3}$,,,,,,,,,
Cyclobutadiene,C$_{4}$H$_{4}$,52.07,g/mol,,,,,,,
Aztreonam,C$_{13}$H$_{17}$N$_{5}$O$_{8}$S$_{2}$,,,,,,,,,
Arecoline,C$_{8}$H$_{13}$NO$_{2}$,,,,,1.0495,g/cm$^{3}$,209,$^{\circ}$C,
Nitrofen,C$_{12}$H$_{7}$Cl$_{2}$NO$_{3}$,,,,,,,,,0.7-1.2
Eticyclidine,C$_{14}$H$_{21}$N,,,,,,,,,
Dynorphin A,C$_{75}$H$_{126}$N$_{24}$O$_{15}$,,,,,,,,,
Dabrafenib,C$_{23}$H$_{20}$F$_{3}$N$_{5}$O$_{2}$S$_{2}$,,,,,,,,,
Methoxychlor,C$_{16}$H$_{15}$Cl$_{3}$O$_{2}$,345.65,g/mol,87,$^{\circ}$C,1.41,g/cm$^{3}$,,,0.00001% (20$^{\circ}$C)
Methaqualone,C$_{16}$H$_{14}$N$_{2}$O,,,113,$^{\circ}$C,,,,,
Rivoglitazone,C$_{20}$H$_{19}$N$_{3}$O$_{4}$S,,,,,,,,,
L-165041,C$_{22}$H$_{26}$O$_{7}$,,,,,,,,,
Faldaprevir,C$_{40}$H$_{49}$BrN$_{6}$O$_{9}$S,,,,,,,,,
Duroquinone,C$_{10}$H$_{12}$O$_{2}$,164.20408,g/mol,109-114,$^{\circ}$C,,,,,
Desloratadine,C$_{19}$H$_{19}$ClN$_{2}$,,,,,,,,,
Cerulenin,C$_{12}$H$_{17}$NO$_{3}$,,,,,,,456.14,$^{\circ}$C,
Brilacidin,C$_{40}$H$_{50}$F$_{6}$N$_{14}$O$_{6}$,,,,,,,,,
Triisopropylphosphine,C$_{9}$H$_{21}$P,,,,,,,81,$^{\circ}$C,good in alkanes
Silicon tetrabromide,Br$_{4}$Si,,,5,$^{\circ}$C,,,153,$^{\circ}$C,
Magnesium phosphate tribasic,Mg$_{3}$P$_{2}$O$_{8}$,,,1184,$^{\circ}$C,,,,,Insoluble
Tris(pentafluorophenyl)borane,C$_{18}$F$_{15}$B,511.98,g/mol,126-131,$^{\circ}$C,,,,,forms adduct
Butylated hydroxytoluene,C$_{15}$H$_{24}$O,,,70,$^{\circ}$C,1.048,g/cm$^{3}$,265,$^{\circ}$C,1.1
CY-208 243,,,,,,,,,,
Atipamezole,C$_{14}$H$_{16}$N$_{2}$,,,,,,,,,
Dihydrocortisone,C$_{21}$H$_{30}$O$_{5}$,,,,,1.244,g/cm$^{3}$,,,
Clevidipine,C$_{21}$H$_{23}$Cl$_{2}$NO$_{6}$,,,,,,,,,
Nitrosyl-O-hydroxide,HNO$_{2}$,47.013,g/mol,,,,,,,
Lefetamine,C$_{16}$H$_{19}$N,,,,,,,,,
Mubritinib,C$_{25}$H$_{23}$F$_{3}$N$_{4}$O$_{2}$,,,,,,,,,
Pine tar,"NdCl$_{3}$,",,,,,,,150-400,$^{\circ}$C,Slightly
Dihydroxyacetone phosphate,C$_{3}$H$_{7}$O$_{6}$P,170.06,g/mol,,,,,,,
Hafnium tetrafluoride,HfF$_{4}$,,,,,7.1,g/cm$^{3}$,970,$^{\circ}$C,
Imazapyr,C$_{13}$H$_{15}$N$_{3}$O$_{3}$,,,,,,,,,13.47
Thallium(I) bromide,TlBr,284.288,g/mol,480,$^{\circ}$C,7.557,g/cm$^{3}$,815,$^{\circ}$C,0.047
Potassium tert-butoxide,C$_{4}$H$_{9}$KO,,,256,$^{\circ}$C,,,,,
Xylobiose,C$_{10}$H$_{18}$O$_{9}$,282.24,g/mol,,,,,,,
Geosmin,C$_{12}$H$_{22}$O,,,,,,,270,$^{\circ}$C,
Iron(III) chromate,Fe$_{2}$(CrO$_{4}$)$_{3}$,459.671,g/mol,,,,,,,insoluble
Phthalaldehyde,C$_{8}$H$_{6}$O$_{2}$,,,55.5,$^{\circ}$C,,,,,
Phthalonitrile,C$_{6}$H$_{4}$(CN)$_{2}$,128.13,g/mol,139-141,$^{\circ}$C,,,,,
ATC-0175,C$_{23}$H$_{25}$F$_{2}$N$_{5}$O,,,,,,,,,
Indium(III) oxide,In$_{2}$O$_{3}$,277.64,g/mol,1910,$^{\circ}$C,7.179,g/cm$^{3}$,,,insoluble
FGI-104,C$_{28}$H$_{30}$ClN$_{3}$O$_{3}$,,,,,,,,,
Tetramethyltin,C$_{4}$H$_{12}$Sn,,,-54,$^{\circ}$C,,,74,$^{\circ}$C,
Dimethyl tetrachloroterephthalate,C$_{10}$H$_{6}$Cl$_{4}$O$_{4}$,,,156,$^{\circ}$C,,,,,0.05
Dibromomethane,CH$_{2}$Br$_{2}$,,,,,,,,,12.5
Butyl nitrate,C$_{4}$H$_{9}$NO$_{3}$,119.12,g/mol,,,,,133,$^{\circ}$C,1120
Ethionamide,C$_{8}$H$_{10}$N$_{2}$S,,,,,,,,,
Tetraethyl dithiopyrophosphate,((CH$_{3}$CH$_{2}$O)$_{2}$PS)$_{2}$O,322.3,g/mol,,,1.20,g/cm$^{3}$,,,
Chlormezanone,C$_{11}$H$_{12}$ClNO$_{3}$S,,,,,,,,,
Strontium iodide,SrI$_{2}$(anhydrous),341.43,g/mol,507-645,$^{\circ}$C,,,1773,$^{\circ}$C,177.0
Purmorphamine,C$_{31}$H$_{32}$N$_{6}$O$_{2}$,,,,,,,,,
Tienopramine,C$_{17}$H$_{20}$N$_{2}$S,,,,,,,,,
Methadone intermediate,,,,,,,,,,
Sodium acetate,NaC$_{2}$H$_{3}$O$_{2}$,,,324,$^{\circ}$C,1.528,g/cm$^{3}$,881.4,$^{\circ}$C,Anhydrous:
Ciclacillin,C$_{15}$H$_{23}$N$_{3}$O$_{4}$S,,,,,,,,,
Narasin,C$_{43}$H$_{72}$O,,,,,,,,,
JWH-250,C$_{22}$H$_{25}$NO$_{2}$,,,,,,,,,
Citraconic acid,C$_{5}$H$_{6}$O$_{4}$,,,,,1.62,g/cm3,,,Freely soluble
Antimony pentafluoride,SbF$_{5}$,216.74,g/mol,8.3,$^{\circ}$C,2.99,g/cm$^{3}$,149.5,$^{\circ}$C,Reacts
Iopentol,C$_{20}$H$_{28}$I$_{3}$N$_{3}$O$_{9}$,,,,,,,,,
Prolinol,C$_{5}$H$_{11}$NO,101.15,g/mol,,,,,74-76,$^{\circ}$C,
Nickel(II) sulfate,NiSO$_{4}$,154.75,g/mol,> 100,$^{\circ}$C,4.01,g/cm$^{3}$,840,$^{\circ}$C,65
Disilyne,H$_{2}$Si$_{2}$,,,,,,,,,
Phorone,C$_{9}$H$_{14}$O,138.20,g/mol,28,$^{\circ}$C,0.885,g/cm$^{3}$,198-199,$^{\circ}$C,
Cirazoline,C$_{13}$H$_{16}$N$_{2}$O,,,,,,,,,
Zinc fluoride,ZnF$_{2}$,103.406,g/mol,872,$^{\circ}$C,4.95,g/cm$^{3}$,1500,$^{\circ}$C,.000052
Afatinib,C$_{24}$H$_{25}$ClFN$_{5}$O$_{3}$,,,,,,,,,
Potassium sodium tartrate,KNaC$_{4}$H$_{4}$O$_{6}$.4H$_{2}$O,282.1,g/mol,,,,,220,$^{\circ}$C,630
Uroporphyrinogen III,C$_{40}$H$_{44}$N$_{4}$O$_{16}$,836.795,g/mol,,,,,,,
Tin(IV) iodide,SnI$_{4}$,,,143,$^{\circ}$C,,,348.5,$^{\circ}$C,
Thioacetazone,C$_{10}$H$_{12}$N$_{4}$OS,,,,,,,,,
Benzyl acetate,C$_{9}$H$_{10}$O$_{2}$,150.18,g/mol,-51.5,$^{\circ}$C,,,212,$^{\circ}$C,0.31
Cefpodoxime,C$_{15}$H$_{17}$N$_{5}$O$_{6}$S$_{2}$,,,,,,,,,
Phosphorylethanolamine,C$_{2}$H$_{8}$NO$_{4}$P,141.063,g/mol,,,,,,,
Dulaglutide,C$_{2646}$H$_{4044}$N$_{704}$O$_{836}$S$_{18}$,,,,,,,,,
Diisopinocampheylborane,C$_{20}$H$_{35}$B,,,,,,,,,
Betahistine,C$_{8}$H$_{12}$N$_{2}$,,,,,,,,,
Epinephrine,C$_{9}$H$_{13}$NO$_{3}$,,,,,,,,,
Cyanogen fluoride,CNF,,,,,,,-46,$^{\circ}$C,
Mallotojaponin C,C$_{29}$H$_{36}$O$_{8}$,512.59,g/mol,,,,,,,
Ambuphylline,C$_{11}$H$_{19}$N$_{5}$O$_{3}$,269.30,g/mol,,,,,,,
Sappanol,C$_{16}$H$_{16}$O$_{6}$,304.29,g/mol,,,,,,,
Pegsunercept,C$_{502}$H$_{758}$N$_{154}$O$_{165}$S$_{16}$,,,,,,,,,
SB-269970,C$_{18}$H$_{28}$N$_{2}$O$_{3}$S,,,,,,,,,
Bithionol,C$_{12}$H$_{6}$Cl$_{4}$O$_{2}$S,,,,,,,,,
Octyl salicylate,C$_{15}$H$_{22}$O$_{3}$,250.33,g/mol,,,1.014,g/cm$^{3}$,189,$^{\circ}$C,
Ketoconazole,C$_{26}$H$_{28}$Cl$_{2}$N$_{4}$O$_{4}$,,,,,,,,,
Pentaamine(dinitrogen)ruthenium(II) chloride,H$_{15}$N$_{7}$Cl$_{2}$Ru,285.14,g/mol,,,,,,,
Palladium(II) chloride,PdCl$_{2}$,177.326,g/mol,679,$^{\circ}$C,4.0,g/cm$^{3}$,,,"soluble in trace amounts, better solubility in cold water"
Pregnenolone,C$_{21}$H$_{32}$O$_{2}$,,,,,,,,,
Compound NJ2,C$_{32}$H$_{25}$O$_{13}$,617.53,g/mol,,,,,,,
Patchoulol,C$_{15}$H$_{26}$O,,,56,$^{\circ}$C,,,140,$^{\circ}$C,practically insoluble
Cyclohexanone,C$_{6}$H$_{10}$O,98.15,g/mol,-47,$^{\circ}$C,,,155.65,$^{\circ}$C,
Cyclohexane-1 2-diol,C$_{6}$H$_{12}$O$_{2}$,116.15,g/mol,,,,,,,
Anisindione,C$_{16}$H$_{12}$O$_{3}$,,,,,,,,,
Butalbital,C$_{11}$H$_{16}$N$_{2}$O$_{3}$,,,,,,,,,
Fraxetin,C$_{10}$H$_{8}$O$_{5}$,,,,,,,,,
Monolinuron,C$_{9}$H$_{11}$ClN$_{2}$O$_{2}$,214.6,g/mol,80-83,$^{\circ}$C,,,,,
Oxamyl,C$_{7}$H$_{13}$N$_{3}$O$_{3}$S,,,100-102,$^{\circ}$C,0.97,g/cm$^{3}$,,,
Hydrazine sulfate,H$_{6}$N$_{2}$O$_{4}$S,,,,,,,,,30
Carboxyamidotriazole,C$_{17}$H$_{12}$Cl$_{3}$N$_{5}$O$_{2}$,,,,,,,,,
Xylitol pentanitrate,C$_{5}$H$_{7}$N$_{5}$O$_{15}$,377.13,g/mol,,,,,,,
Liothyronine,C$_{15}$H$_{11}$I$_{3}$NNaO$_{4}$,,,,,,,,,
Dibenzyl ketone,C$_{15}$H$_{14}$O,,,32-34,$^{\circ}$C,1.069,g/cm$^{3}$,330,$^{\circ}$C,
Oxypurinol,C$_{5}$H$_{4}$N$_{4}$O$_{2}$,,,,,,,,,
Laudanosine,C$_{21}$H$_{27}$NO$_{4}$,,,89,$^{\circ}$C,,,,,
Polmacoxib,C$_{12}$H$_{16}$FNO$_{4}$S,,,,,,,,,
Casopitant,C$_{30}$H$_{35}$F$_{7}$N$_{4}$O$_{2}$,,,,,,,,,
Fidarestat,C$_{12}$H$_{10}$FN$_{3}$O$_{4}$,,,,,,,,,
Norclostebol,C$_{18}$H$_{25}$ClO$_{2}$,308.84,g/mol,,,,,,,
Hydroxymethylbilane,C$_{40}$H$_{46}$N$_{4}$O$_{17}$,854.81,g/mol,,,,,,,
Atosiban,C$_{43}$H$_{67}$N$_{11}$O$_{12}$S$_{2}$,,,,,,,,,
Deoxyguanosine triphosphate,C$_{10}$H$_{16}$N$_{5}$O$_{13}$P$_{3}$,,,,,,,,,
Adenophostin,C$_{16}$H$_{26}$N$_{5}$O$_{18}$P$_{3}$,669.32,g/mol,,,,,,,
Benzyltrimethylammonium fluoride,C$_{10}$H$_{18}$FNO,,,181,$^{\circ}$C,,,,,
Lindane,C$_{6}$H$_{6}$Cl$_{6}$,,,,,,,,,
Indoxacarb,C$_{22}$H$_{17}$ClF$_{3}$N$_{3}$O$_{7}$,,,88.1,$^{\circ}$C,,,,,
Inosinic acid,C$_{10}$H$_{13}$N$_{4}$O$_{8}$P,348.206,g/mol,,,,,,,
Mesuximide,C$_{12}$H$_{13}$NO$_{2}$,,,,,,,,,
Iomeprol,C$_{17}$H$_{22}$I$_{3}$N$_{3}$O$_{8}$,,,,,,,,,
EPI-001,C$_{21}$H$_{27}$ClO$_{5}$,,,,,,,,,
Tris(bipyridine)ruthenium(II) chloride,C$_{30}$H$_{24}$N$_{6}$Cl$_{2}$Ru$_{.6}$H$_{2}$O,640.53,g/mol,>300,$^{\circ}$C,,,,,Soluble
Mitoguazone,C$_{5}$H$_{12}$N$_{8}$,,,,,,,,,
Beryllium monohydride,BeH$^{.}$,,,,,,,,,
Metahexamide,C$_{14}$H$_{21}$N$_{3}$O$_{3}$S,311.4,g/mol,,,,,,,
Noxiptiline,C$_{19}$H$_{22}$N$_{2}$O,,,,,,,,,
Homoserine,C$_{4}$H$_{9}$NO$_{3}$,119.12,g/mol,,,,,,,
Fulminic acid,HCNO,,,,,,,,,
Barium bromide,BaBr$_{2}$(anhydrous),297.14,g/mol,857,$^{\circ}$C,4.78,g/cm$^{3}$,1835,$^{\circ}$C,92.2
Chloropicrin,CCl$_{3}$NO$_{2}$,164.375,g/mol,-69,$^{\circ}$C,,,112,$^{\circ}$C,0.2%
Desogestrel,C$_{22}$H$_{30}$O,,,,,,,,,
Semax,C$_{37}$H$_{51}$N$_{9}$O$_{10}$S,,,,,,,,,
Knipholone,C$_{25}$H$_{20}$O$_{8}$,448.42,g/mol,,,,,,,
Alfaxalone,C$_{21}$H$_{32}$O$_{3}$,,,,,,,,,
Castalagin,C$_{41}$H$_{26}$O$_{26}$,934.63,g/mol,,,,,,,
Gemigliptin,C$_{18}$H$_{19}$F$_{8}$N$_{5}$O$_{2}$,,,,,,,,,
Octatetraynyl radical,C$_{8}$H,,,,,,,,,
Mercury(I) nitrate,Hg$_{2}$(NO$_{3}$)$_{2}$(anhydrous),525.19,g/mol,,,,,,,"slightly soluble, reacts"
Bromoform,CHBr$_{3}$,,,,,,,,,3.2
Pyroxamine,C$_{18}$H$_{20}$ClNO,,,,,,,,,
Metamfepramone,C$_{11}$H$_{15}$NO,,,,,,,,,
Thallium(III) nitrate,N$_{3}$O$_{9}$Tl,,,103,$^{\circ}$C,,,,,decomposes
Fluoroacetic acid,C$_{2}$H$_{3}$FO$_{2}$,,,35.2,$^{\circ}$C,,,165,$^{\circ}$C,Soluble in water and ethanol
Sodium amide,NaNH$_{2}$,,,210,$^{\circ}$C,,,400,$^{\circ}$C,reacts
Citrus Red 2,C$_{18}$H$_{16}$N$_{2}$O$_{3}$,,,156,$^{\circ}$C,,,,,Insoluble
Benzoxonium chloride,C$_{23}$H$_{42}$ClNO$_{2}$,400.04,g/mol,,,,,,,
Ensaculin,C$_{26}$H$_{32}$N$_{2}$O$_{5}$,,,,,,,,,
Galeterone,C$_{26}$H$_{32}$N$_{2}$O,,,,,,,,,
Styrene maleic anhydride,(C$_{8}$H$_{8}$)$_{n}$-(C$_{4}$H$_{2}$O$_{3}$)$_{m}$,,,,,1.080,g/cm$^{3}$,,,
Lithium nitrate,LiNO$_{3}$,68.946,g/mol,255,$^{\circ}$C,2.38,g/cm$^{3}$,600,$^{\circ}$C,52.2
BRL-15 572,,,,,,,,,,
Clocapramine,C$_{28}$H$_{37}$ClN$_{4}$O,,,,,,,,,
Norcantharidin,C$_{8}$H$_{8}$O$_{4}$,,,115,$^{\circ}$C,,,,,
Salicylamide,C$_{7}$H$_{7}$NO$_{2}$,,,,,,,,,
CS gas,C$_{10}$H$_{5}$ClN$_{2}$,188.6,g/mol,93,$^{\circ}$C,1.04,g/cm$^{3}$,310,$^{\circ}$C,insoluble
Formestane,C$_{19}$H$_{26}$O$_{3}$,,,,,,,,,
Syringetin,C$_{17}$H$_{14}$O$_{8}$,346.28,g/mol,,,,,,,
Lisdexamfetamine,C$_{15}$H$_{25}$N$_{3}$O,,,,,,,,,
Cerium(III) bromide,CeBr$_{3}$,379.828,g/mol,722,$^{\circ}$C,,,1457,$^{\circ}$C,Not Published Yet
Thymidine diphosphate,C$_{10}$H$_{16}$N$_{2}$O$_{12}$P$_{2}$,,,,,,,,,
Torcetrapib,C$_{26}$H$_{25}$F$_{9}$N$_{2}$O$_{4}$,,,,,,,,,
Polyethylenimine,"(C$_{2}$H$_{5}$N)$_{n}$,linearform",,,,,,,,,
Dieticyclidine,C$_{16}$H$_{25}$N,,,,,,,,,
Meta-DOT,C$_{12}$H$_{19}$NO$_{2}$S,241.350,g/mol,,,,,,,
Olanzapine,C$_{17}$H$_{20}$N$_{4}$S,,,,,,,,,
Catechol,C$_{6}$H$_{6}$O$_{2}$,110.1,g/mol,105,$^{\circ}$C,,,245.5,$^{\circ}$C,430
Blosozumab,C$_{6462}$H$_{9852}$N$_{1684}$O$_{2030}$S$_{46}$,,,,,,,,,
SB-271046,C$_{20}$H$_{22}$ClN$_{3}$O$_{3}$S$_{2}$,,,,,,,,,
Methyl trifluoromethansulfonate,C$_{2}$H$_{3}$F$_{3}$O$_{3}$S,164.10,g/mol,-64,$^{\circ}$C,,,100,$^{\circ}$C,Hydrolyzes
M1G,C$_{8}$H$_{5}$N$_{5}$O,,,,,,,,,
Ripazepam,C$_{15}$H$_{16}$N$_{4}$O,,,,,,,,,
Xibenolol,C$_{15}$H$_{25}$NO$_{2}$,,,,,,,,,
Aluminium molybdate,Al$_{2}$(MoO$_{4}$)$_{3}$,,,705,$^{\circ}$C,,,,,slightly soluble in water
Fluocortolone,C$_{22}$H$_{29}$FO$_{4}$,,,,,,,,,
Promethazine,C$_{17}$H$_{20}$N$_{2}$S,,,,,,,,,
Molybdenum(III) chloride,MoCl$_{3}$,202.30,g/mol,410,$^{\circ}$C,3.58,g/cm$^{3}$,,,insoluble
Pilocarpine,C$_{11}$H$_{16}$N$_{2}$O$_{2}$,,,,,,,,,
Octasulfur,S$_{8}$,,,,,,,,,
Tiglic acid,C$_{5}$H$_{8}$O$_{2}$,100.116,g/mol,63.5-64,$^{\circ}$C,0.9641,g/cm$^{3}$,198.5,$^{\circ}$C,
Befiradol,C$_{20}$H$_{22}$ClF$_{2}$N$_{3}$O,,,,,,,,,
S-Nitroso-N-acetylpenicillamine,C$_{7}$H$_{12}$N$_{2}$O$_{4}$S,220.25,g/mol,,,,,,,
Aspartic acid,C$_{4}$H$_{7}$NO$_{4}$,,,270,$^{\circ}$C,1.7,g/cm$^{3}$,324,$^{\circ}$C,4.5
Elzasonan,C$_{22}$H$_{23}$Cl$_{2}$N$_{3}$OS,,,,,,,,,
Fentonium,C$_{31}$H$_{34}$BrNO$_{4}$,,,,,,,,,
Mercury(II) fluoride,HgF$_{2}$,238.587,g/mol,,,8.95,g/cm$^{3}$,,,reacts
Demeclocycline,C$_{21}$H$_{21}$ClN$_{2}$O$_{8}$,,,,,,,,,
Sulazepam,C$_{16}$H$_{13}$ClN$_{2}$S,,,,,,,,,
Dimethyl phthalate,C$_{10}$H$_{10}$O$_{4}$,194.184,g/mol,2,$^{\circ}$C,1.19,g/cm$^{3}$,283-284,$^{\circ}$C,0.4% (20$^{\circ}$C)
Methoxyamine,CNOH$_{5}$,,,42,$^{\circ}$C,,,50,$^{\circ}$C,Miscible
Salutaridine,CH$_{2}$NO$_{2}$,,,,,,,,,5