Name,formula,Property Molar Mass,Property Molar Mass units,Property Melting Point,Property Melting Point units,Property Density,Property Density units,Property Boiling Point,Property Boiling Point units,Property Solubility
Flavin mononucleotide,C$_{17}$H$_{21}$N$_{4}$O$_{9}$P,456.344,g/mol,,,,,,,
Glucosamine,C$_{6}$H$_{13}$NO$_{5}$,,,150,$^{\circ}$C,,,,,
Lenalidomide,C$_{13}$H$_{13}$N$_{3}$O$_{3}$,,,,,,,,,
Methysergide,C$_{21}$H$_{27}$N$_{3}$O$_{2}$,,,,,,,,,
Flunitrazepam,C$_{16}$H$_{12}$FN$_{3}$O$_{3}$,,,,,,,,,
Zingerone,C$_{11}$H$_{14}$O$_{3}$,194.22,g/mol,40-41,$^{\circ}$C,,,187-188,$^{\circ}$C,
Isonotholaenic acid,C$_{17}$H$_{18}$O$_{5}$,302.32,g/mol,,,,,,,
Pyrrolidine dithiocarbamate,C$_{5}$H$_{9}$NS$_{2}$,,,,,1.264,g/cm$^{3}$,199.7,$^{\circ}$C,
Alfaprostol,C$_{24}$H$_{38}$O$_{5}$,406.56,g/mol,,,,,,,
Gramicidin S,,,,,,,,,,
Dibenzothiophene,C$_{12}$H$_{8}$S,184.26,g/mol,97-100,$^{\circ}$C,1.252,g/cm$^{3}$,332-333,$^{\circ}$C,
Tofisopam,C$_{22}$H$_{26}$N$_{2}$O$_{4}$,,,,,,,,,
Fulvene,C$_{6}$H$_{6}$,78.11,g/mol,,,,,,,
Lisinopril,C$_{21}$H$_{31}$N$_{3}$O$_{5}$,,,,,,,,,
Loreclezole,C$_{10}$H$_{6}$Cl$_{3}$N$_{3}$,,,,,,,,,
Thiobarbituric acid,C$_{4}$H$_{4}$N$_{2}$O$_{2}$S,144.15,g/mol,245,$^{\circ}$C,,,,,
Acifluorfen,C$_{14}$H$_{7}$ClF$_{3}$NO$_{5}$,,,,,,,,,
Methyl azide,CH$_{3}$N$_{3}$,,,,,,,,,slightly soluble
Iron(II) lactate,C$_{6}$H$_{10}$FeO$_{6}$,233.99,g/mol,500,$^{\circ}$C,,,,,trihydrate:
Indium antimonide,InSb,,,527,$^{\circ}$C,,,,,
Resiquimod,C$_{17}$H$_{22}$N$_{4}$O$_{2}$,,,,,,,,,
Fumagillin,C$_{26}$H$_{34}$O$_{7}$,,,,,,,,,
Trimethylaluminium,C$_{6}$H$_{18}$Al$_{2}$,144.17,g/mol,15,$^{\circ}$C,0.752,g/cm$^{3}$,125-130,$^{\circ}$C,reacts
Rolziracetam,C$_{7}$H$_{9}$N$_{2}$O$_{2}$,,,,,,,,,
Beta-Methylfentanyl,C$_{23}$H$_{30}$N$_{2}$O,,,,,,,,,
Thiazyl fluoride,NSF,,,-89,$^{\circ}$C,,,0.4,$^{\circ}$C,
Acetylcysteine,C$_{14}$H$_{11}$Cl$_{2}$NO$_{2}$,,,106,$^{\circ}$C,,,108,$^{\circ}$C,200
Thymol,C$_{10}$H$_{14}$O,,,49-51,$^{\circ}$C,0.96,g/cm$^{3}$,232,$^{\circ}$C,Insoluble
Uranium hexafluoride,UF$_{6}$,352.02,g/mol,64.052,$^{\circ}$C,,,56.5,$^{\circ}$C,Reacts violently
Nitro blue tetrazolium chloride,C$_{40}$H$_{30}$Cl$_{2}$N$_{10}$O$_{6}$,817.64,g/mol,200,$^{\circ}$C,,,,,
Arachidonyl-2'-chloroethylamide,C$_{22}$H$_{36}$ClNO,,,,,,,,,
Eosin Y,C$_{20}$H$_{6}$Br$_{4}$Na$_{2}$O$_{5}$,,,,,,,,,
Talampicillin,C$_{24}$H$_{23}$N$_{3}$O$_{6}$S,,,,,,,,,
Fluorosulfuric acid,FHO$_{3}$S,,,,,,,,,
Bromopride,C$_{14}$H$_{22}$BrN$_{3}$O$_{2}$,,,,,,,,,
Americium dioxide,AmO$_{2}$,,,,,11.68,g/cm$^{3}$,,,
Alstonine,C$_{20}$H$_{25}$NO,,,,,,,,,
Xanthinol,C$_{13}$H$_{21}$N$_{5}$O$_{4}$,,,,,,,,,
Ethephon,C$_{2}$H$_{6}$ClO$_{3}$P,144.5,g/mol,74,$^{\circ}$C,1.409,g/cm$^{3}$,,,123.9
Bicifadine,C$_{12}$H$_{15}$N,,,,,,,,,
Iron(II) sulfide,FeS,87.910,g/mol,1194,$^{\circ}$C,4.84,g/cm$^{3}$,,,negligible (insoluble)
Mandelonitrile,C$_{8}$H$_{7}$NO,,,28-30,$^{\circ}$C,,,17-0,$^{\circ}$C,
Eupatolitin,C$_{17}$H$_{14}$O$_{8}$,346.28,g/mol,,,,,,,
Ditetrahydrofurylpropane,C$_{11}$H$_{20}$O$_{2}$,,,,,,,145-146,$^{\circ}$C,
Tropolone,C$_{7}$H$_{6}$O$_{2}$,122.12,g/mol,50-52,$^{\circ}$C,,,80-84,$^{\circ}$C,
R-4066,C$_{32}$H$_{37}$NO,,,,,,,,,
Prajmaline,C23H33N2O2charge+,,,,,,,,,
Tin(IV) bromide,SnBr$_{4}$,438.33,g/mol,31,$^{\circ}$C,3.340,g/cm$^{3}$,205,$^{\circ}$C,soluble
Bromous acid,HBrO$_{2}$,112.911,g/mol,,,,,,,
Methylammonium halide,CH$_{3}$NH$_{3}$Br,111.96904,g/mol,,,,,48.7,$^{\circ}$C,
Albendazole,C$_{12}$H$_{15}$N$_{3}$O$_{2}$S,,,,,,,,,
Sulfamethoxazole,C$_{10}$H$_{11}$N$_{3}$O$_{3}$S,,,,,,,,,
Demeton,C$_{8}$H$_{19}$O$_{3}$PS$_{2}$,258.3384,g/mol,,,1.146,g/cm$^{3}$,128,$^{\circ}$C,2.0
Cyclohexylacetone,C$_{9}$H$_{16}$O,140.22,g/mol,,,,,198-200,$^{\circ}$C,
Hafnium tetraiodide,HfI$_{4}$,,,449,$^{\circ}$C,5.60,g/cm$^{3}$,,,
Bisphenol A,C$_{15}$H$_{16}$O$_{2}$,,,158,$^{\circ}$C,1.20,g/cm$^{3}$,220,$^{\circ}$C,120-300
A-86929,C$_{18}$H$_{21}$NO$_{2}$S,315.429,g/mol,,,,,,,
Cannabicyclol,C$_{21}$H$_{30}$O$_{2}$,,,,,,,,,
Arsabenzene,C$_{5}$H$_{5}$As,,,-54,$^{\circ}$C,,,-54,$^{\circ}$C,
Alglucosidase alfa,,,,,,,,,,
Methylscopolamine bromide,,,,,,,,,,
AR-A000002,C$_{27}$H$_{36}$N$_{4}$O$_{2}$,,,,,,,,,
Rosiglitazone,C$_{18}$H$_{19}$N$_{3}$O$_{3}$S,,,,,,,,,
Barium azide,BaN$_{6}$,221.37,g/mol,126,$^{\circ}$C,,,160,$^{\circ}$C,insoluble
Propanethiol,C$_{3}$H$_{8}$S,,,-113,$^{\circ}$C,,,67,$^{\circ}$C,Slight
Adamantane,C$_{10}$H$_{16}$,,,270,$^{\circ}$C,,,,,
Kaempferol,C$_{15}$H$_{10}$O$_{6}$,286.23,g/mol,276-278,$^{\circ}$C,,,,,
Titanocene dichloride,C$_{10}$H$_{10}$Cl$_{2}$Ti,248.96,g/mol,289,$^{\circ}$C,,,,,sl. sol. with hydrolysis
Quinoline,C$_{9}$H$_{7}$N,129.16,g/mol,-15,$^{\circ}$C,,,237,$^{\circ}$C,Slightly soluble
Scandium monosulfide,ScS,,,,,,,,,
Cyclododecatriene,C$_{12}$H$_{18}$,,,231,$^{\circ}$C,,,-18,$^{\circ}$C,
S-Adenosylmethioninamine,C$_{14}$H$_{23}$N$_{6}$O$_{3}$S$^{+}$,355.43582,g/mol,,,,,,,
Fluclorolone acetonide,,,,,,,,,,
Triethyl phosphonoacetate,C$_{8}$H$_{17}$O$_{5}$P,224.19,g/mol,,,,,142-145,$^{\circ}$C,
Dipropylene glycol,C$_{6}$H$_{14}$O$_{3}$,134.173,g/mol,,,,,230.5,$^{\circ}$C,"miscible with water, soluble in ethanol"
Pyrylium salt,C$_{5}$H$_{5}$O$^{+}$,81.09,g/mol,,,,,,,
Cobalt(II) sulfate,CoSO$_{4}$,154.996,g/mol,735,$^{\circ}$C,3.71,g/cm$^{3}$,420,$^{\circ}$C,anhydrous:   36.2
Plicatol A,C$_{17}$H$_{16}$O$_{5}$,,,,,,,,,
ATL-444,C$_{17}$H$_{19}$N$_{5}$O,,,,,,,,,
Nickel(II) acetate,NiO$_{4}$C$_{4}$H$_{6}$,,,,,1.798,g/cm$^{3}$,,,
Methylenedioxybenzylamphetamine,C$_{17}$H$_{19}$NO$_{2}$,269.343,g/mol,,,,,,,
Methyl pentanoate,C$_{6}$H$_{12}$O$_{2}$,,,<25,$^{\circ}$C,0.89,g/cm$^{3}$,126,$^{\circ}$C,
Cinanserin,C$_{20}$H$_{24}$N$_{2}$OS,,,,,,,,,
Ryanodine,C$_{25}$H$_{35}$NO$_{9}$,493.547,g/mol,,,,,,,
L-DOPA,C$_{9}$H$_{11}$NO$_{4}$,,,,,,,,,
Cadmium hydroxide,Cd(OH)$_{2}$,146.43,g/mol,130,$^{\circ}$C,4.79,g/cm$^{3}$,300,$^{\circ}$C,0.026
Thionyl chloride,SOCl$_{2}$,118.97,g/mol,-104.5,$^{\circ}$C,,,74.6,$^{\circ}$C,reacts
MGS-0039,C$_{15}$H$_{14}$Cl$_{2}$NO$_{5}$,,,,,,,,,
Polyacrylic acid,(C$_{3}$H$_{4}$O$_{2}$)$_{n}$,,,,,,,,,
Eprobemide,C$_{14}$H$_{19}$ClN$_{2}$O$_{2}$,,,,,,,,,
Flupentixol,C$_{23}$H$_{25}$F$_{3}$N$_{2}$OS,,,,,,,,,
Lead(II) bromide,PbBr$_{2}$,367.01,g/mol,373,$^{\circ}$C,6.66,g/cm$^{3}$,916,$^{\circ}$C,0.455
Ursodeoxycholic acid,,,,203,$^{\circ}$C,,,,,
Biotin sulfoxide,C$_{10}$H$_{16}$N$_{2}$O$_{4}$S,,,,,,,,,
Ceftolozane,C$_{23}$H$_{30}$N$_{12}$O$_{8}$S$_{2}$,,,,,,,,,
Butaperazine,C$_{24}$H$_{31}$N$_{3}$OS,,,,,,,,,
Udenafil,C$_{25}$H$_{36}$N$_{6}$O$_{4}$S,,,,,,,,,
Disulfur dichloride,S$_{2}$Cl$_{2}$,135.04,g/mol,-80,$^{\circ}$C,1.688,g/cm$^{3}$,137.1,$^{\circ}$C,"decomposes, with loss of HCl"
Apomorphine,C$_{17}$H$_{17}$NO$_{2}$,,,,,,,,,
Alpha-Methylhistamine,C$_{6}$H$_{11}$N$_{3}$,,,,,,,,,
Calcium titanate,CaTiO$_{3}$,135.943,g/mol,1975,$^{\circ}$C,3.98,g/cm$^{3}$,3000,$^{\circ}$C,insoluble
Erythorbic acid,C$_{6}$H$_{8}$O$_{6}$,,,164-172,$^{\circ}$C,0.704,g/cm$^{3}$,,,
Ethyl acetate,C$_{4}$H$_{8}$O$_{2}$,,,-83.6,$^{\circ}$C,0.902,g/cm$^{3}$,77.1,$^{\circ}$C,
Pembrolizumab,chemical_formulaC$_{6504}$H$_{10004}$N$_{1716}$O$_{2036}$S$_{46}$(peptide),,,,,,,,,
Phosphatidylinositol,C$_{47}$H$_{83}$O$_{13}$P,,,,,,,,,
Fosfomycin,C$_{3}$H$_{7}$O$_{4}$P,,,,,,,,,
Tetrabromobisphenol A,C$_{15}$H$_{12}$Br$_{4}$O$_{2}$,,,178,$^{\circ}$C,,,250,$^{\circ}$C,insoluble
Licofelone,C$_{23}$H$_{22}$ClNO$_{2}$,,,,,,,,,
Nerol,C$_{10}$H$_{18}$O,154.25,g/mol,,,0.881,g/cm$^{3}$,224-225,$^{\circ}$C,
WY-46824,C$_{19}$H$_{29}$ClN$_{2}$O,,,,,,,,,
SPhos,C$_{26}$H$_{35}$O$_{2}$P,410.53,g/mol,164-166,$^{\circ}$C,,,,,organic solvents
Beryllium hydride,BeH$_{2}$,,,250,$^{\circ}$C,0.65,g/cm$^{3}$,,,decomposes
Alpha-Aminobutyric acid,C$_{4}$H$_{9}$NO$_{2}$,103.12,g/mol,,,,,,,
Vinyl bromide,C$_{2}$H$_{3}$Br,106.95,g/mol,-137.8,$^{\circ}$C,,,15.8,$^{\circ}$C,Insoluble
Silicic acid,H$_{4}$O$_{4}$Si,,,,,,,,,
Potassium oxide,K$_{2}$O,,,740,$^{\circ}$C,2.32,g/cm$^{3}$,,,Reacts forming KOH
Indium nitride,InN,128.83,g/mol,1100,$^{\circ}$C,6.81,g/cm$^{3}$,,,hydrolysis
Tetrairidium dodecacarbonyl,C$_{12}$O$_{12}$Ir$_{4}$,1104.92,g/mol,195,$^{\circ}$C,,,,,
Indopanolol,C$_{20}$H$_{23}$ClN$_{2}$O$_{3}$,,,,,,,,,
N-Ethylmaleimide,C$_{6}$H$_{7}$NO$_{2}$,,,43-46,$^{\circ}$C,,,210,$^{\circ}$C,
Sargramostim,C$_{639}$H$_{1006}$N$_{168}$O$_{196}$S$_{8}$,,,,,,,,,
Butyryl-CoA,C$_{25}$H$_{42}$N$_{7}$O$_{17}$P$_{3}$S,,,,,,,,,
Nitrogen tribromide,NBr$_{3}$,,,,,,,,,
Phenylacetylene,C$_{8}$H$_{6}$,102.133,g/mol,-45,$^{\circ}$C,0.93,g/cm$^{3}$,142-144,$^{\circ}$C,
Gamma-Butyrolactone,C$_{4}$H$_{6}$O$_{2}$,,,-43.53,$^{\circ}$C,,,204,$^{\circ}$C,Miscible
Gidazepam,C$_{17}$H$_{15}$BrN$_{4}$O$_{2}$,,,,,,,,,
Methylcyclopentane,C$_{6}$H$_{12}$,,,-142.4,$^{\circ}$C,0.749,g/cm$^{3}$,71.8,$^{\circ}$C,Insoluble
Iron tetraboride,FeB$_{4}$,99.0920,g/mol,,,,,,,
Meseclazone,C$_{11}$H$_{10}$ClNO$_{3}$,,,,,,,,,
Tyrosol,C$_{8}$H$_{10}$O$_{2}$,138.164,g/mol,91-92,$^{\circ}$C,,,158,$^{\circ}$C,
Polonium trioxide,PoO$_{3}$,256.98,g/mol,,,,,,,
Phthalic acid,C$_{8}$H$_{6}$O$_{4}$,166.14,g/mol,207,$^{\circ}$C,,,,,0.6
JTE 7-31,C$_{22}$H$_{28}$N$_{2}$O$_{3}$,368.469,g/mol,,,,,,,
Loxoprofen,C$_{15}$H$_{18}$O$_{3}$,,,,,,,,,
Potassium perchlorate,KClO$_{4}$,,,610,$^{\circ}$C,2.5239,g/cm$^{3}$,,,0.76
Ipilimumab,C$_{6742}$H$_{9972}$N$_{1732}$O$_{2004}$S$_{40}$,,,,,,,,,
Simethicone,chemical_formula(C$_{2}$H$_{6}$OSi)$_{n}$$\cdot$(SiO$_{2}$)$_{m}$,,,,,,,,,
Chlordimeform,C$_{10}$H$_{13}$ClN$_{2}$,,,32,$^{\circ}$C,,,,,250
Abunidazole,C$_{15}$H$_{19}$N$_{3}$O$_{4}$,,,,,,,,,
Zearalenone,C$_{18}$H$_{22}$O$_{5}$,318.364,g/mol,,,,,,,
HU-308,C$_{27}$H$_{43}$O$_{3}$,,,,,,,,,
SSR-180 575,,,,,,,,,,
Clenbuterol,C$_{12}$H$_{18}$Cl$_{2}$N$_{2}$O,,,,,,,,,
E-4031,C$_{21}$H$_{27}$N$_{3}$O$_{3}$S,,,,,,,,,
Fenofibrate,C$_{20}$H$_{21}$ClO$_{4}$,,,,,,,,,
Tartronic acid,C$_{3}$H$_{4}$O$_{5}$,120.06,g/mol,159,$^{\circ}$C,,,,,
Gadolinium oxysulfide,Gd$_{2}$O$_{2}$S,378.5638,g/mol,,,,,,,insoluble
Elemicin,C$_{12}$H$_{16}$O$_{3}$,,,,,,,,,
Moroxydine,C$_{6}$H$_{13}$N$_{5}$O,171.20,g/mol,,,,,,,
Dextrallorphan,C$_{19}$H$_{25}$NO,,,,,,,,,
Vidarabine,C$_{10}$H$_{15}$N$_{5}$O$_{5}$,,,,,,,,,
Fenthion,C$_{10}$H$_{15}$O$_{3}$PS$_{2}$,278.33,g/mol,7,$^{\circ}$C,1.250,g/cm$^{3}$,87,$^{\circ}$C,54-56
Lansoprazole,C$_{16}$H$_{14}$F$_{3}$N$_{3}$O$_{2}$S,,,,,,,,,
Nickel sulfide,NiS,,,797,$^{\circ}$C,5.87,g/cm$^{3}$,1388,$^{\circ}$C,insoluble
Imidafenacin,C$_{20}$H$_{21}$N$_{3}$O,,,,,,,,,
VDM-11,C$_{27}$H$_{39}$NO$_{2}$,,,,,,,,,
Ronifibrate,C$_{19}$H$_{20}$ClNO$_{5}$,,,,,,,,,
Osmium hexafluoride,OsF$_{6}$,304.22,g/mol,33.4,$^{\circ}$C,,,47.5,$^{\circ}$C,
Cixutumumab,C$_{6500}$H$_{10052}$N$_{1724}$O$_{2036}$S$_{44}$,,,,,,,,,
Carbenoxolone,C$_{34}$H$_{50}$O$_{7}$,,,,,,,,,
Famotidine,C$_{8}$H$_{15}$N$_{7}$O$_{2}$S$_{3}$,,,,,,,,,
Nootkatone,C$_{15}$H$_{22}$O,,,36,$^{\circ}$C,,,170,$^{\circ}$C,
Nitidine,C$_{21}$H$_{18}$NO$^{+}_{4}$,348.37,g/mol,,,,,,,
Aganodine,C$_{9}$H$_{10}$Cl$_{2}$N$_{4}$,,,,,,,,,
Xenon monochloride,XeCl,166.746,g/mol,,,,,,,
Ammonium phosphate,N$_{3}$H$_{12}$O$_{4}$P,,,,,,,,,58.0
Shikimic acid,C$_{7}$H$_{10}$O$_{5}$,174.15,g/mol,185-187,$^{\circ}$C,,,,,
Sodium dodecylbenzenesulfonate,C$_{18}$H$_{29}$NaO$_{3}$S,,,,,,,,,20%
Tetraethylgermanium,C$_{8}$H$_{20}$Ge,,,,,,,163,$^{\circ}$C,
Diisopropyl ether,C$_{6}$H$_{14}$O,,,-60,$^{\circ}$C,,,68.5,$^{\circ}$C,2
Phthalimide,C$_{8}$H$_{5}$O$_{2}$N,,,238,$^{\circ}$C,,,336,$^{\circ}$C,<0.1
Sodium manganate,Na$_{2}$MnO$_{4}$,,,,,,,,,
Apricoxib,C$_{19}$H$_{20}$N$_{2}$O$_{3}$S,,,,,,,,,
Melphalan,C$_{13}$H$_{18}$Cl$_{2}$N$_{2}$O$_{2}$,,,,,,,,,
PF-2545920,C$_{25}$H$_{20}$N$_{4}$O,,,,,,,,,
Pixantrone,C$_{17}$H$_{19}$N$_{5}$O$_{2}$,325.365,g/mol,,,,,,,
Nigericin,C$_{40}$H$_{68}$O$_{11}$,724.96132,g/mol,,,,,,,
Benznidazole,C$_{12}$H$_{12}$N$_{4}$O$_{3}$,,,,,,,,,
Cyclopentene,C$_{5}$H$_{8}$,68.11,g/mol,-135,$^{\circ}$C,0.771,g/cm$^{3}$,44-46,$^{\circ}$C,
Scutellarin,C$_{21}$H$_{18}$O$_{12}$,462.36,g/mol,,,,,,,
Nifekalant,C$_{19}$H$_{27}$N$_{5}$O$_{5}$,,,,,,,,,
Diisobutylaluminium hydride,C$_{16}$H$_{38}$Al$_{2}$(dimer),,,-80,$^{\circ}$C,0.798,g/cm$^{3}$,116-118,$^{\circ}$C,hydrocarbon solvents
Yttrium(III) bromide,YBr$_{3}$,328.618,g/mol,904,$^{\circ}$C,,,,,83.3
Ameltolide,C$_{15}$H$_{16}$N$_{2}$O,,,,,,,,,
Dimethylphenylphosphine,C$_{8}$H$_{11}$P,138.14,g/mol,,,0.971,g/cm$^{3}$,74-75,$^{\circ}$C,Insoluble
Ammonium fluorosilicate,H$_{8}$F$_{6}$N$_{2}$Si,,,100,$^{\circ}$C,,,,,dissolves in water and alcohol
Hydrogen anion,H$^{-}$,,,,,,,,,
Remoxipride,C$_{16}$H$_{23}$BrN$_{2}$O$_{3}$,,,,,,,,,
Silver perrhenate,AgReO$_{4}$,358.073,g/mol,430,$^{\circ}$C,7.05,g/cm$^{3}$,,,
Flucindole,C$_{14}$H$_{18}$N$_{2}$,,,,,,,,,
Tetrahydrothiophene,C$_{4}$H$_{8}$S,,,-96,$^{\circ}$C,,,119,$^{\circ}$C,
Di-tert-butyl ether,C$_{8}$H$_{18}$O,,,-61,$^{\circ}$C,0.7658,g/cm$^{3}$,107.2,$^{\circ}$C,
Apiol,C$_{12}$H$_{14}$O$_{4}$,222.23,g/mol,30,$^{\circ}$C,,,294,$^{\circ}$C,
Lopirazepam,C$_{14}$H$_{9}$Cl$_{2}$N$_{3}$O$_{2}$,,,,,,,,,
Oleyl alcohol,C$_{18}$H$_{36}$O,268.478,g/mol,13-19,$^{\circ}$C,0.845-0.855,g/cm$^{3}$,330-360,$^{\circ}$C,Insoluble
Zabofloxacin,C$_{19}$H$_{20}$FN$_{5}$O$_{4}$,,,,,,,,,
Oxilofrine,C$_{10}$H$_{15}$NO$_{2}$,,,,,,,,,
Enterobactin,C$_{30}$H$_{27}$N$_{3}$O$_{15}$,669.55,g/mol,,,,,,,
Castoramine,C$_{15}$H$_{23}$NO$_{2}$,249.34,g/mol,,,,,,,
Piperidolate,C$_{21}$H$_{25}$NO$_{2}$,,,,,,,,,
Macrogol,chemical_formulaH-(OCH$_{2}$CH$_{2}$)$_{''n''}$-OH,,,,,,,,,
AM-2232,C$_{24}$H$_{20}$N$_{2}$O,,,,,,,,,
Diphenyldichloromethane,C$_{13}$H$_{10}$Cl$_{2}$,,,146-150,$^{\circ}$C,1.235,g/cm$^{3}$,193,$^{\circ}$C,
Dicyanoacetylene,C$_{4}$N$_{2}$,76.06,g/mol,20.5,$^{\circ}$C,0.907,g/cm$^{3}$,76.5,$^{\circ}$C,
Bradanicline,C$_{22}$H$_{23}$N$_{3}$O$_{2}$,,,,,,,,,
Sappanone A,C$_{16}$H$_{12}$O$_{5}$,284.26,g/mol,,,,,,,
Ariadne (psychedelic),C$_{13}$H$_{21}$NO$_{2}$,223.31,g/mol,,,,,,,
Dynemicin A,C$_{30}$H$_{19}$NO$_{9}$,,,,,,,,,
Azulene,C$_{10}$H$_{8}$,,,99-100,$^{\circ}$C,,,242,$^{\circ}$C,0.02
Canolol,C$_{10}$H$_{12}$O$_{3}$,180.20,g/mol,,,,,,,
Hypoxanthine,C$_{5}$H$_{4}$N$_{4}$O,,,,,,,,,
Nitrosobenzene,C$_{6}$H$_{5}$NO,,,65,$^{\circ}$C,,,59,$^{\circ}$C,
SB-408 124,,,,,,,,,,
Adimolol,C$_{25}$H$_{29}$N$_{3}$O$_{3}$,,,,,,,,,
Cyclic di-GMP,C$_{20}$H$_{24}$N$_{10}$O$_{14}$P$_{2}$,690.09,g/mol,,,,,,,
Diisopropyltryptamine,C$_{16}$H$_{24}$N$_{2}$,,,,,,,,,
Gedocarnil,C$_{23}$H$_{21}$ClN$_{2}$O$_{4}$,,,,,,,,,
Permethrin,C$_{21}$H$_{20}$Cl$_{2}$O$_{3}$,,,34,$^{\circ}$C,,,200,$^{\circ}$C,5.5
Amorolfine,C$_{21}$H$_{35}$NO,,,,,,,,,
SIB-1757,C$_{12}$H$_{11}$N$_{3}$O,,,,,,,,,
Anagrelide,C$_{10}$H$_{7}$Cl$_{2}$N$_{3}$O,,,,,,,,,
Calcium hypochlorite,Ca(ClO)$_{2}$,142.98,g/mol,100,$^{\circ}$C,2.35,g/cm$^{3}$,175,$^{\circ}$C,21
Calcium sulfide,CaS,72.143,g/mol,2525,$^{\circ}$C,2.59,g/cm$^{3}$,,,slightly soluble
Paraoxon,C$_{10}$H$_{14}$NO$_{6}$P,,,,,,,,,
Hexafluronium bromide,,,,,,,,,,
Penthienate,C$_{18}$H$_{30}$NO$_{3}$S,,,,,,,,,
Majdine,C$_{23}$H$_{28}$N$_{2}$O$_{6}$,,,,,,,,,
Xylometazoline,C$_{16}$H$_{24}$N$_{2}$,,,,,,,,,
Deguelin,C$_{23}$H$_{22}$O$_{6}$,394.42,g/mol,171,$^{\circ}$C,,,,,
Oxaprotiline,C$_{20}$H$_{23}$NO,,,,,,,,,
Butorphanol,C$_{21}$H$_{29}$NO$_{2}$,,,,,,,,,
Cucurbitacin E,C$_{32}$H$_{44}$O$_{8}$,556.76,g/mol,,,1.249,g/cm$^{3}$,,,
Azilsartan,C$_{25}$H$_{20}$N$_{4}$O$_{5}$,,,,,,,,,
Caesium sulfate,Cs$_{2}$SO$_{4}$,361.87,g/mol,1010,$^{\circ}$C,,,,,167
Sulfurous acid,H$_{2}$SO$_{3}$,82.07,g/mol,,,,,,,
Isorhamnetin,C$_{16}$H$_{12}$O$_{7}$,316.26,g/mol,307,$^{\circ}$C,,,,,
Carbon tetrachloride,CCl$_{4}$,,,,,,,76.72,$^{\circ}$C,0.097
Azinphos-methyl,C$_{10}$H$_{12}$N$_{3}$O$_{3}$PS$_{2}$,,,,,,,,,
Beryllium iodide,BeI$_{2}$,262.821,g/mol,480,$^{\circ}$C,4.325,g/cm$^{3}$,590,$^{\circ}$C,reacts explosively
Boron trioxide,B$_{2}$O$_{3}$,69.6182,g/mol,,,,,1860,$^{\circ}$C,1.1
Ioversol,C$_{18}$H$_{24}$I$_{3}$N$_{3}$O$_{9}$,,,,,,,,,
Cadmium sulfide,CdS,,,1750,$^{\circ}$C,,,980,$^{\circ}$C,
RCS-8,C$_{25}$H$_{29}$NO$_{2}$,,,,,,,,,
Lead(II) azide,PbN$_{6}$,,,190,$^{\circ}$C,4.71,g/cm$^{3}$,,,2.3
Manifaxine,C$_{12}$H$_{15}$F$_{2}$NO$_{2}$,,,,,,,,,
Polypropylene,(C$_{3}$H$_{6}$)$_{n}$,,,,,,,,,
Tungsten(VI) oxytetrachloride,WOCl$_{4}$,341.651,g/mol,211,$^{\circ}$C,11.92,g/cm$^{3}$,227.55,$^{\circ}$C,reacts
Disopyramide,C$_{21}$H$_{29}$N$_{3}$O,,,,,,,,,
Eltrombopag,C$_{25}$H$_{22}$N$_{4}$O$_{4}$,,,,,,,,,
Bay R 1531,,,,,,,,,,
F-15063,C$_{24}$H$_{29}$NO$_{2}$,,,,,,,,,
Vinorelbine,C$_{45}$H$_{54}$N$_{4}$O$_{8}$,,,,,,,,,
Polytetrafluoroethylene,(C$_{2}$F$_{4}$)$_{n}$,,,,,,,,,
Cefoxitin,C$_{16}$H$_{17}$N$_{3}$O$_{7}$S$_{2}$,,,,,,,,,
Fenitrothion,C$_{9}$H$_{12}$NO$_{5}$PS,,,3.4,$^{\circ}$C,1.3227,g/cm$^{3}$,118,$^{\circ}$C,38.0
Farnesene,C$_{15}$H$_{24}$,204.36,g/mol,,,,,,,
Thiram,C$_{6}$H$_{12}$N$_{2}$S$_{4}$,,,155,$^{\circ}$C,1.29,g/cm$^{3}$,,,30
Isradipine,C$_{19}$H$_{21}$N$_{3}$O$_{5}$,,,,,,,,,
Bicarbonate,HCO$^{3-}$,,,,,,,,,
Cinoxate,C$_{14}$H$_{18}$O$_{4}$,,,-25,$^{\circ}$C,1.102,g/cm$^{3}$,184,$^{\circ}$C,
Sapacitabine,C$_{26}$H$_{42}$N$_{4}$O$_{5}$,,,,,,,,,
Hexamethylene diisocyanate,C$_{8}$H$_{12}$N$_{2}$O$_{2}$,168.2,g/mol,-67,$^{\circ}$C,,,255,$^{\circ}$C,
Silver permanganate,AgMnO$_{4}$,226.804,g/mol,160,$^{\circ}$C,4.27,g/cm$^{3}$,,,0.55
Paracetamol,C$_{8}$H$_{9}$NO$_{2}$,,,169,$^{\circ}$C,1.263,g/cm$^{3}$,,,12.78
Menthol,C$_{10}$H$_{20}$O,,,36-38,$^{\circ}$C,,,212,$^{\circ}$C,"Slightly soluble, (-)-isomer"
Samidorphan,C$_{21}$H$_{26}$N$_{2}$O$_{4}$,,,,,,,,,
Mefenorex,C$_{12}$H$_{18}$ClN,,,,,,,,,
Caesium chromate,Cs$_{2}$CrO$_{4}$,,,,,4.237,g/cm$^{3}$,,,71.4
Sulpiride,C$_{15}$H$_{23}$N$_{3}$O$_{4}$S,,,,,,,,,
Maduramicin,C$_{47}$H$_{80}$O$_{17}$,,,,,,,,,
Tebanicline,C$_{9}$H$_{11}$ClN$_{2}$O,,,,,,,,,
Simple hydrochlorothiazide,C$_{7}$H$_{8}$ClN$_{3}$O$_{4}$S$_{2}$,,,,,,,,,
Dihydrofolic acid,C$_{19}$H$_{21}$N$_{7}$O$_{6}$,443.414,g/mol,,,,,,,
Hydroxyl radical,HO,,,,,,,,,
Apocholic acid,C$_{23}$H$_{38}$O$_{4}$,,,175-176,$^{\circ}$C,,,,,
Necitumumab,C$_{6436}$H$_{9958}$N$_{1702}$O$_{2020}$S$_{42}$,,,,,,,,,
N-Acetylanthranilic acid,C$_{9}$H$_{9}$NO$_{3}$,179.17,g/mol,184-186,$^{\circ}$C,,,399,$^{\circ}$C,
AN2728,chemical_formulaC$_{60}$H$_{72}$N$_{8}$O$_{6}$,,,,,,,,,
Chromium trifluoride,CrF$_{3}$,108.9913,g/mol,1100,$^{\circ}$C,3.8,g/cm$^{3}$,,,negligible
Nitisinone,C$_{14}$H$_{10}$F$_{3}$NO$_{5}$,,,,,,,,,
Inosine pranobex,C$_{52}$H$_{78}$N$_{10}$O$_{17}$,1115.23,g/mol,,,,,,,
Linaclotide,C$_{59}$H$_{79}$N$_{15}$O$_{21}$S$_{6}$,,,,,,,,,
Iso E Super,C$_{16}$H$_{26}$O,234.38,g/mol,,,,,134,$^{\circ}$C,
Triclabendazole,C$_{14}$H$_{9}$Cl$_{3}$N$_{2}$OS,,,,,,,,,
DR-4485,C$_{26}$H$_{28}$Cl$_{2}$N$_{2}$O,,,,,,,,,
S-Ethylisothiouronium diethylphosphate,,,,,,,,,,
Zolantidine,C$_{22}$H$_{27}$N$_{3}$OS,,,,,,,,,
Potassium bisulfite,KHSO$_{3}$,120.1561,g/mol,190,$^{\circ}$C,,,,,49
Miocamycin,C$_{45}$H$_{75}$NO$_{15}$,,,220,$^{\circ}$C,,,,,"Slightly soluble in water,  Soluble in methanol, acetone and chloroform."
Deflazacort,C$_{25}$H$_{31}$NO$_{6}$,,,,,,,,,
Ammonium nitrate,(NH$_{4}$)(NO$_{3}$),80.052,g/mol,169.6,$^{\circ}$C,1.725,g/cm$^{3}$,approx. 210,$^{\circ}$C,118
Nevirapine,C$_{15}$H$_{14}$N$_{4}$O,,,,,,,,,
Iscotrizinol,C$_{44}$H$_{59}$N$_{7}$O$_{5}$,,,,,,,,,
Tungsten(IV) oxide,WO$_{2}$,215.839,g/mol,1700,$^{\circ}$C,10.8,g/cm$^{3}$,,,negligible
Dimethoxyamphetamine,C$_{11}$H$_{17}$NO$_{2}$,195.26,g/mol,,,,,,,
Potassium citrate,C$_{6}$H$_{5}$K$_{3}$O$_{7}$,306.395,g/mol,180,$^{\circ}$C,1.98,g/cm$^{3}$,230,$^{\circ}$C,soluble
Alpha-Carotene,C$_{40}$H$_{56}$,,,,,,,,,
Naloxazone,C$_{19}$H$_{23}$N$_{3}$O$_{3}$,341.40422,g/mol,,,,,,,
Nicofuranose,C$_{30}$H$_{24}$N$_{4}$O$_{10}$,,,,,,,,,
Prolintane,C$_{15}$H$_{23}$N,,,,,,,,,
Pyrrolidine,C$_{4}$H$_{9}$N,,,-63,$^{\circ}$C,0.866,g/cm$^{3}$,87,$^{\circ}$C,Miscible
YM-31636,C$_{14}$H$_{11}$N$_{3}$S,,,,,,,,,
Gestodene,C$_{21}$H$_{26}$O$_{2}$,,,,,,,,,
Natalizumab,C$_{24}$H$_{32}$O$_{6}$,,,,,,,,,
Varacin,C$_{10}$H$_{13}$NO$_{2}$S$_{5}$,339.540,g/mol,,,,,,,
Vanadium(II) bromide,VBr$_{2}$,210.750,g/mol,827,$^{\circ}$C,4.58,g/cm$^{3}$,1227,$^{\circ}$C,reacts
Etifoxine,C$_{17}$H$_{17}$ClN$_{2}$O,,,,,,,,,
Roche ester,C$_{5}$H$_{10}$O$_{3}$,,,,,,,74,$^{\circ}$C,
Dactylifric acid,C$_{16}$H$_{16}$O$_{8}$,336.29,g/mol,,,,,,,