Name,formula,Property Molar Mass,Property Molar Mass units,Property Melting Point,Property Melting Point units,Property Density,Property Density units,Property Boiling Point,Property Boiling Point units,Property Solubility
Hipposudoric acid,C$_{16}$H$_{8}$O$_{8}$,,,,,,,,,
Carbon hexoxide,CO$_{6}$,108.01,g/mol,,,,,,,
Palladium(II) cyanide,Pd(CN)$_{2}$,158.455,g/mol,,,,,,,
Tetrabromoethylene,C$_{2}$Br$_{4}$,,,50,$^{\circ}$C,,,226,$^{\circ}$C,
Isoxazole,C$_{3}$H$_{3}$NO,69.06202,g/mol,,,,,95,$^{\circ}$C,
Chlorendic acid,C$_{9}$H$_{4}$Cl$_{6}$O$_{4}$,,,,,,,,,
Wieland-Gumlich aldehyde,C$_{19}$H$_{22}$N$_{2}$O$_{2}$,,,,,,,,,
Linoleic acid,C$_{18}$H$_{32}$O$_{2}$,,,,,,,,,
Dalfopristin,C$_{34}$H$_{50}$N$_{4}$O$_{9}$S,,,,,,,,,
Pyrethrin I,C$_{21}$H$_{28}$O$_{3}$,,,,,,,,,
Magnesium oxide,MgO,40.3044,g/mol,2852,$^{\circ}$C,3.58,g/cm$^{3}$,3600,$^{\circ}$C,0.00062
Ecastolol,C$_{26}$H$_{33}$N$_{3}$O$_{6}$,,,,,,,,,
Phenazepam,C$_{15}$N$_{2}$H$_{10}$OBrCl,,,,,,,,,
Soman,C$_{7}$H$_{16}$FO$_{2}$P,,,-42,$^{\circ}$C,1.022,g/cm$^{3}$,198,$^{\circ}$C,Moderate
Astaxanthin,C$_{40}$H$_{52}$O$_{4}$,596.84,g/mol,216,$^{\circ}$C,,,774,$^{\circ}$C,
DIDS,C$_{16}$H$_{10}$N$_{2}$O$_{6}$S$_{4}$,,,400,$^{\circ}$C,,,,,
Piperaquine,C$_{29}$H$_{32}$Cl$_{2}$N$_{6}$,,,,,,,,,
Triphenyl phosphate,C$_{18}$H$_{15}$O$_{4}$P,326.28,g/mol,48-50,$^{\circ}$C,,,244,$^{\circ}$C,organic solvents
Potassium aluminium fluoride,KAlF$_{4}$,,,,,,,,,2
Cyanocobalamin,C$_{63}$H$_{88}$CoN$_{14}$O$_{14}$P,1355.38,g/mol,> 300,$^{\circ}$C,,,> 300,$^{\circ}$C,Soluble
Brimonidine,C$_{11}$H$_{10}$BrN$_{5}$,,,,,,,,,
Delamanid,C$_{25}$H$_{25}$F$_{3}$N$_{4}$O$_{6}$,,,,,,,,,
Tetramethylammonium,C$_{4}$H$_{12}$N+,74.14,g/mol,,,,,,,
Betamethasone 17-valerate,C$_{27}$H$_{37}$FO$_{6}$,476.58,g/mol,,,,,,,
LY-404 039,,,,,,,,,,
Lidoflazine,C$_{30}$H$_{35}$F$_{2}$N$_{3}$O,,,159,$^{\circ}$C,,,,,"Almost insoluble in water(<0.01%),  Very soluble in chloroform"
Boron nitride,BN,,,2973,$^{\circ}$C,,,,,insoluble
Suritozole,C$_{10}$H$_{10}$FN$_{3}$S,,,,,,,,,
Oltipraz,C$_{8}$H$_{6}$N$_{2}$S$_{3}$,,,,,,,,,
Cerium acetylacetonate,CeC$_{15}$H$_{21}$O$_{6}$,,,,,,,,,
Barium nitrate,Ba(NO$_{3}$)$_{2}$,261.337,g/mol,592,$^{\circ}$C,3.24,g/cm$^{3}$,,,4.95
Heme A,C$_{49}$H$_{56}$O$_{6}$N$_{4}$Fe,,,,,,,,,
Meglutol,C$_{6}$H$_{10}$O$_{5}$,,,,,,,,,
Befuraline,C$_{20}$H$_{20}$N$_{2}$O$_{2}$,,,,,,,,,
N-Propyl chloride,C$_{3}$H$_{7}$Cl,,,-122.8,$^{\circ}$C,,,46.7,$^{\circ}$C,0.27
Mupirocin,C$_{26}$H$_{44}$O$_{9}$,,,,,,,,,
Apricitabine,C$_{8}$H$_{11}$N$_{3}$O$_{3}$S,,,,,,,,,
Hydroxystilbamidine,C$_{16}$H$_{16}$N$_{4}$O,280.324,g/mol,,,,,,,
Diphenyl-2-pyridylphosphine,C$_{17}$H$_{14}$NP,,,85,$^{\circ}$C,,,163,$^{\circ}$C,
Tungsten hexacarbonyl,C$_{6}$O$_{6}$W,351.901,g/mol,170,$^{\circ}$C,2.65,g/cm$^{3}$,,,insoluble
Immepip,C$_{9}$H$_{15}$N$_{3}$,,,,,,,,,
Pacritinib,C$_{28}$H$_{32}$N$_{4}$O$_{3}$,,,,,,,,,
Methoctramine,C$_{36}$H$_{62}$N$_{4}$O$_{2}$,,,,,,,,,20
Quebecol,C$_{24}$H$_{26}$O$_{7}$,,,,,,,,,
Barium iodide,BaI$_{2}$(anhydrous),391.136,g/mol,711,$^{\circ}$C,5.15,g/cm$^{3}$,,,166.7
N-Formylpiperidine,C$_{6}$H$_{11}$NO,,,,,,,222,$^{\circ}$C,
Behentrimonium chloride,C$_{25}$H$_{54}$ClN,404.16,g/mol,,,,,,,
Uridine diphosphate glucose,C$_{15}$H$_{24}$N$_{2}$O$_{17}$P$_{2}$,566.302,g/mol,,,,,,,
BU-LAD,C$_{23}$H$_{31}$N$_{3}$O,,,,,,,,,
Sodium borohydride,NaBH$_{4}$,37.83,g/mol,400,$^{\circ}$C,1.0740,g/cm$^{3}$,500,$^{\circ}$C,"soluble, reacts with water"
Thulium(III) oxide,Tm$_{2}$O$_{3}$,385.866,g/mol,2341,$^{\circ}$C,8.6,g/cm$^{3}$,3945,$^{\circ}$C,slightly soluble in acids
Dexoxadrol,C$_{20}$H$_{23}$NO$_{2}$,,,,,,,,,
Dipropyltryptamine,C$_{16}$H$_{24}$N$_{2}$,,,174.5,$^{\circ}$C,,,,,
Cloxazolam,C$_{17}$H$_{14}$Cl$_{2}$N$_{2}$O$_{2}$,,,,,,,,,
Meprylcaine,C$_{14}$H$_{21}$NO$_{2}$,235.32,g/mol,,,,,,,
Pipequaline,C$_{22}$H$_{24}$N$_{2}$,,,,,,,,,
Celiprolol,C$_{20}$H$_{33}$N$_{3}$O$_{4}$,,,,,,,,,
Icotinib,C$_{22}$H$_{21}$N$_{3}$O$_{4}$,,,,,,,,,
Buspirone,C$_{21}$H$_{31}$N$_{5}$O$_{2}$,,,,,,,,,
Thiophosgene,CSCl$_{2}$,114.98,g/mol,,,1.50,g/cm$^{3}$,70-75,$^{\circ}$C,
Nadifloxacin,C$_{19}$H$_{21}$FN$_{2}$O$_{4}$,,,,,,,,,
Benzonatate,C$_{30}$H$_{53}$NO,,,,,,,,,
Copper(II) azide,Cu(N$_{3}$)$_{2}$,147.586,g/mol,,,,,,,
Toremifene,C$_{26}$H$_{28}$ClNO,,,,,,,,,
A-Santalol,C$_{15}$H$_{24}$O,,,,,0.9770,g/cm$^{3}$,166,$^{\circ}$C,Practically insoluble
Tarenflurbil,C$_{15}$H$_{13}$FO$_{2}$,,,,,,,,,
Zinc L-aspartate,C$_{8}$H$_{12}$N$_{2}$O$_{8}$Zn,329.59848,g/mol,,,,,,,
Chidamide,chemical_formulaC$_{22}$H$_{19}$FN$_{4}$O$_{2}$,,,,,,,,,
Pethidine,C$_{15}$H$_{21}$NO$_{2}$,,,,,,,,,
Zinc acetate,ZnC$_{4}$H$_{6}$O$_{4}$(DIH$_{y}$DRaTe),219.50,g/mol,,,1.735,g/cm$^{3}$,,,43
Endrin,C$_{12}$H$_{8}$Cl$_{6}$O,380.907,g/mol,200,$^{\circ}$C,1.77,g/cm$^{3}$,,,0.23
Phenyltoloxamine,C$_{17}$H$_{21}$NO,,,,,,,,,
Nitropentadecene,C$_{15}$H$_{29}$NO$_{2}$,,,,,,,,,
Propyl gallate,C$_{10}$H$_{12}$O$_{5}$,212.20,g/mol,150,$^{\circ}$C,,,,,
Allopregnanolone,C$_{21}$H$_{34}$O$_{2}$,318.49,g/mol,,,,,,,
Pyriprole,C$_{18}$H$_{10}$Cl$_{2}$F$_{5}$N$_{5}$S,,,,,,,,,
Nedaplatin,C$_{2}$H$_{8}$AsN$_{2}$O$_{3}$Pt,,,,,,,,,
Cobalt(II) selenide,CoSe,137.89,g/mol,1055,$^{\circ}$C,7.65,g/cm$^{3}$,,,
Cyclopentadienylmolybdenum tricarbonyl dimer,Mo$_{2}$($\eta$-C$_{5}$H$_{5}$)$_{2}$(CO)$_{6}$}$}$,489.96,g/mol,222,$^{\circ}$C,,,,,
JWH-359,C$_{24}$H$_{36}$O$_{2}$,,,,,,,,,
Pantoprazole,C$_{16}$H$_{15}$F$_{2}$N$_{3}$O$_{4}$S,,,,,,,,,
Adecatumumab,C$_{6552}$H$_{10080}$N$_{1740}$O$_{2052}$S$_{46}$,,,,,,,,,
Megaphone (molecule),C$_{22}$H$_{30}$O$_{6}$,,,152,$^{\circ}$C,1.242,g/cm$^{3}$,,,
Chrysin,C$_{15}$H$_{10}$O$_{4}$,,,,,,,,,
Transfluthrin,C$_{15}$H$_{12}$Cl$_{2}$F$_{4}$O$_{2}$,,,32,$^{\circ}$C,1.507,g/cm$^{3}$,135,$^{\circ}$C,5.710$^{-5}$ g/L
MES (buffer),C$_{6}$H$_{13}$NO$_{4}$S,195.2,g/mol,,,,,,,
Spirodecanedione,C$_{10}$H$_{14}$O$_{2}$,166.22,g/mol,,,,,,,
Abciximab,C$_{2101}$H$_{3229}$N$_{551}$O$_{673}$S$_{15}$,,,,,,,,,
Hexabromobenzene,C$_{6}$Br$_{6}$,,,327,$^{\circ}$C,,,,,
Gastrodigenin,C$_{7}$H$_{8}$O$_{2}$,,,,,,,,,
Cefodizime,C$_{20}$H$_{20}$N$_{6}$O$_{7}$S$_{4}$,,,,,,,,,
Phenacyl chloride,C$_{8}$H$_{7}$OCl,,,54,$^{\circ}$C,1.324,g/cm$^{3}$,244.5,$^{\circ}$C,insoluble
Isoprene,C$_{5}$H$_{8}$,68.12,g/mol,-143.95,$^{\circ}$C,0.681,g/cm$^{3}$,34.067,$^{\circ}$C,
Meloxicam,C$_{14}$H$_{13}$N$_{3}$O$_{4}$S$_{2}$,,,,,,,,,
Pinobanksin,C$_{15}$H$_{12}$O$_{5}$,272.25,g/mol,,,,,,,
Arsenic pentoxide,As$_{2}$O$_{5}$,229.8402,g/mol,315,$^{\circ}$C,4.32,g/cm$^{3}$,,,59.5
Linalool,C$_{10}$H$_{18}$O,154.25,g/mol,,,,,,,1.589
Calcium propanoate,C$_{6}$H$_{10}$CaO$_{4}$,186.2192,g/mol,,,,,,,49
Rivaroxaban,C$_{19}$H$_{18}$ClN$_{3}$O$_{5}$S,,,,,,,,,
Diiodomethane,CH$_{2}$I$_{2}$,,,,,,,,,1.24
Sodium selenide,Na$_{2}$Se,,,875,$^{\circ}$C,,,,,reacts with water
Stenophyllanin A,C$_{42}$H$_{30}$O$_{25}$,934.64,g/mol,,,,,,,
Methylene blue,C$_{16}$H$_{18}$N$_{3}$SCl,319.85,g/mol,100-110,$^{\circ}$C,,,,,
Sulfathiourea,C$_{7}$H$_{9}$N$_{3}$O$_{2}$S$_{2}$,,,,,,,,,
Digallic acid,C$_{14}$H$_{10}$O$_{9}$,322.22,g/mol,,,,,,,
Neomycin,C$_{23}$H$_{46}$N$_{6}$O$_{13}$,,,,,,,,,
Leukotriene D4,C$_{25}$H$_{40}$N$_{2}$O$_{6}$S,496.661,g/mol,,,,,,,
MCPA,C$_{9}$H$_{9}$ClO$_{3}$,200.62,g/mol,114-118,$^{\circ}$C,1.18-1.21,g/cm$^{3}$,,,825
Cerium(III) oxide,Ce$_{2}$O$_{3}$,328.24,g/mol,2177,$^{\circ}$C,6.2,g/cm$^{3}$,3730,$^{\circ}$C,insoluble
Forchlorfenuron,C$_{12}$H$_{10}$ClN$_{3}$O,247.68,g/mol,,,,,,,
Zirconium tetrafluoride,ZrF$_{4}$,167.21,g/mol,910,$^{\circ}$C,4.43,g/cm$^{3}$,,,1.32
Elosulfase alfa,,,,,,,,,,
Undecylic acid,C$_{11}$H$_{22}$O$_{2}$,186.29,g/mol,28.6,$^{\circ}$C,0.89,g/cm$^{3}$,284,$^{\circ}$C,
Methiocarb,C$_{11}$H$_{15}$NO$_{2}$S,,,118.5,$^{\circ}$C,,,311,$^{\circ}$C,31
Marbofloxacin,C$_{17}$H$_{19}$FN$_{4}$O$_{4}$,,,,,,,,,
Carpanone,C$_{20}$H$_{18}$O$_{6}$,354.343,g/mol,,,,,,,
Mivacurium chloride,,,,,,,,,,
BMS-345541,C$_{14}$H$_{17}$N$_{5}$,,,,,,,,,
Erbium(III) boride,ErB$_{4}$,,,,,,,,,
Orotidine 5'-monophosphate,C$_{10}$H$_{13}$N$_{2}$O$_{11}$P,368.191,g/mol,,,,,,,
Thujopsene,C$_{15}$H$_{24}$,,,,,,,258-260,$^{\circ}$C,
Phenylglyoxal,C$_{8}$H$_{6}$O$_{2}$,134.13,g/mol,76-79,$^{\circ}$C,,,63-65,$^{\circ}$C,
Hydrogen chloride,HCl,,,-114.22,$^{\circ}$C,,,-85.05,$^{\circ}$C,823
Thebaine,C$_{19}$H$_{21}$NO$_{3}$,311.37,g/mol,,,,,,,
Hypobromite,BrO$^{-}$,95.904,g/mol,,,,,,,
Mangiferin,C$_{19}$H$_{18}$O,,,,,,,,,
Hygrine,C$_{8}$H$_{15}$NO,141.21,g/mol,,,,,193-195,$^{\circ}$C,
CP-1414S,C$_{15}$H$_{12}$N$_{4}$O$_{3}$,,,,,,,,,
Oxetorone,C$_{21}$H$_{21}$NO$_{2}$,,,,,,,,,
Growth hormone releasing hexapeptide,C$_{46}$H$_{56}$N$_{12}$O$_{6}$,873.014,g/mol,,,,,,,
MMPIP,C$_{19}$H$_{19}$N$_{3}$O$_{3}$,,,,,,,,,
Arotinolol,C$_{15}$H$_{21}$N$_{3}$O$_{2}$S$_{3}$,,,,,,,,,
Foeniculoside I,C$_{48}$H$_{42}$O$_{14}$,842.83,g/mol,,,,,,,
N-Methyltyramine,C$_{9}$H$_{13}$NO,,,130-131,$^{\circ}$C,,,271,$^{\circ}$C,moderately soluble in water
Bamipine,C$_{19}$H$_{24}$N$_{2}$,,,,,,,,,
BD1052,C$_{17}$H$_{24}$N$_{2}$Cl$_{2}$,,,,,,,,,
Tantalum(V) bromide,Ta$_{2}$Br$_{10}$,580.468,g/mol,265,$^{\circ}$C,,,349,$^{\circ}$C,
Prosultiamine,C$_{15}$H$_{24}$N$_{4}$O$_{2}$S$_{2}$,,,,,,,,,
Nitrazine,C$_{16}$H$_{10}$N$_{4}$O$_{11}$S$_{2}$,498.40,g/mol,,,,,,,
Enprofylline,C$_{8}$H$_{10}$N$_{4}$O$_{2}$,,,,,,,,,
Aluminon,C$_{22}$H$_{23}$N$_{3}$O$_{9}$,473.43,g/mol,,,,,,,
Amikhelline,C$_{18}$H$_{21}$NO$_{5}$,,,,,,,,,
P-Toluic acid,C$_{8}$H$_{8}$O$_{2}$,,,180-181,$^{\circ}$C,,,,,
Azidocillin,C$_{16}$H$_{17}$N$_{5}$O$_{4}$S,,,,,,,,,
Pyridazine,C$_{4}$H$_{4}$N$_{2}$,80.09,g/mol,-8,$^{\circ}$C,1.107,g/cm$^{3}$,208,$^{\circ}$C,
Vincamine,C$_{21}$H$_{26}$N$_{2}$O$_{3}$,,,,,,,,,
Dichloroacetamide,C$_{2}$H$_{3}$Cl$_{2}$NO,,,98-100,$^{\circ}$C,,,233-234,$^{\circ}$C,
Pinaverium,C$_{26}$H$_{41}$BrNO$_{4}$,,,,,,,,,
Asoxime chloride,,,,,,,,,,
Lithium borate,Li$_{2}$B$_{4}$O$_{7}$,169.11,g/mol,917,$^{\circ}$C,,,,,moderately soluble
Gemifloxacin,C$_{18}$H$_{20}$FN$_{5}$O$_{4}$,,,,,,,,,
Rosocyanine,[B(C$_{21}$H$_{19}$O$_{6}$)$_{2}$]Cl(aschloride),781.013,g/mol,,,,,,,
Mecamylamine,C$_{11}$H$_{21}$N,,,,,,,,,
Chromium(III) hydroxide,Cr(OH)$_{3}$,103.02,g/mol,,,,,,,
XPhos,C$_{33}$H$_{49}$P,,,187-190,$^{\circ}$C,,,,,organic solvents
ALD-52,C$_{22}$H$_{27}$N$_{3}$O$_{2}$,,,,,,,,,
Benzydamine,C$_{19}$H$_{23}$N$_{3}$O,,,,,,,,,
Distigmine,C$_{22}$H$_{32}$Br$_{2}$N$_{4}$O$_{4}$,,,,,,,,,
Tricin,C$_{17}$H$_{14}$O$_{7}$,330.29,g/mol,,,,,,,
Trimethyl orthoformate,C$_{4}$H$_{10}$O$_{3}$,,,-53,$^{\circ}$C,,,101-102,$^{\circ}$C,
Mercury(II) hydroxide,H$_{2}$HgO$_{2}$,,,,,,,,,
AM-919,C$_{27}$H$_{44}$O$_{4}$,,,,,,,,,
Tolbutamide,C$_{12}$H$_{18}$N$_{2}$O$_{3}$S,,,,,,,,,
Ethyl glucuronide,,,,,,,,,,
Cerium(III) chloride,CeCl$_{3}$,246.48,g/mol,817,$^{\circ}$C,3.97,g/cm$^{3}$,1727,$^{\circ}$C,100
Calcium nitrite,Ca(NO$_{2}$)$_{2}$,,,390,$^{\circ}$C,2.26,g/cm$^{3}$,,,
Atomoxetine,C$_{17}$H$_{21}$NO,,,,,,,,,
Salicylhydroxamic acid,C$_{7}$H$_{7}$NO$_{3}$,,,175-178,$^{\circ}$C,,,,,
Bromocresol purple,C$_{21}$H$_{16}$Br$_{2}$O$_{5}$S,,,241-242,$^{\circ}$C,,,,,< 0.1
Pentane,C$_{5}$H$_{12}$,,,,,,,,,40
Cannabinol,C$_{21}$H$_{26}$O$_{2}$,,,77,$^{\circ}$C,,,,,insoluble in water
Nonivamide,C$_{17}$H$_{27}$NO$_{3}$,,,54,$^{\circ}$C,1.10,g/cm$^{3}$,,,Insoluble
Potassium fluoride,KF,58.0967,g/mol,858,$^{\circ}$C,2.48,g/cm$^{3}$,1502,$^{\circ}$C,anhydrous:   92
Paroxetine,C$_{19}$H$_{20}$FNO$_{3}$,,,,,,,,,
Levo$\beta$xolol,C$_{18}$H$_{29}$NO$_{3}$,,,,,,,,,
Vitisin A (pyranoanthocyanin),C$_{26}$H$_{25}$O$^{+}_{14}$,561.46,g/mol,,,,,,,
Dehydrocorybulbine,C$_{21}$H$_{22}$NO$^{+}_{4}$,352.40,g/mol,,,,,,,
Somatrem,C$_{995}$H$_{1537}$N$_{263}$O$_{301}$S$_{8}$,,,,,,,,,
S-14671,C$_{22}$H$_{25}$N$_{3}$O$_{2}$S,,,,,,,,,
Benzoquinonetetracarboxylic dianhydride,C$_{10}$O$_{8}$,248.10,g/mol,,,,,,,
Deoxyguanosine,C$_{10}$H$_{13}$N$_{5}$O$_{4}$,267.24,g/mol,,,,,,,
Norethisterone,C$_{20}$H$_{26}$O$_{2}$,,,,,,,,,
PAC-1,C$_{23}$H$_{28}$N$_{4}$O$_{2}$,,,,,,,,,
Azatadine,C$_{20}$H$_{22}$N$_{2}$,,,,,,,,,
Triethyl citrate,C$_{12}$H$_{20}$O$_{7}$,276.283,g/mol,-55,$^{\circ}$C,,,127,$^{\circ}$C,65
Nitarsone,C$_{6}$H$_{6}$AsNO$_{5}$,,,,,,,,,
Monoiodotyrosine,C$_{9}$H$_{10}$INO$_{3}$,307.085,g/mol,,,,,,,
Silver carbonate,Ag$_{2}$CO$_{3}$,,,218,$^{\circ}$C,6.077,g/cm$^{3}$,,,0.031
Carbohydrazide,CH$_{6}$N$_{4}$O,90.09,g/mol,153,$^{\circ}$C,1.341,g/cm$^{3}$,,,
Oxetane,C$_{3}$H$_{6}$O,,,,,0.8930,g/cm$^{3}$,49-50,$^{\circ}$C,
Dexrazoxane,C$_{11}$H$_{16}$N$_{4}$O$_{4}$,,,,,,,,,
Biochanin A,C$_{16}$H$_{12}$O$_{5}$,284.26,g/mol,,,,,,,
Cysteamine,C$_{2}$H$_{7}$NS,,,95-97,$^{\circ}$C,,,,,
Plicatin B,C$_{15}$H$_{18}$O$_{3}$,246.30,g/mol,,,,,,,
Captopril,C$_{9}$H$_{15}$NO$_{3}$S,,,,,,,,,
Clominorex,C$_{9}$H$_{9}$ClN$_{2}$O,,,,,,,,,
Chromium(III) picolinate,Cr(C$_{6}$H$_{4}$NO$_{2}$)$_{3}$,418.33,g/mol,,,,,,,
Sulfadimidine,C$_{12}$H$_{14}$N$_{4}$O$_{2}$S,,,176,$^{\circ}$C,,,,,
ETH-LAD,C$_{21}$H$_{27}$N$_{3}$O,,,,,,,,,
Tellurium tetrafluoride,TeF$_{4}$,,,129,$^{\circ}$C,,,,,
N N-Dimethyl-1-naphthylamine,C$_{12}$H$_{13}$N,,,,,,,139-140,$^{\circ}$C,
Holmium(III) chloride,HoCl$_{3}$,271.289,g/mol,720,$^{\circ}$C,3.7,g/cm$^{3}$,1500,$^{\circ}$C,dissolves
Hentriacontylic acid,C$_{31}$H$_{62}$O$_{2}$,,,109.3-109.6,$^{\circ}$C,,,,,
RO4491533,C$_{24}$H$_{20}$F$_{3}$N$_{3}$O,,,,,,,,,
Rosefuran,C$_{10}$H$_{14}$O,,,,,,,103-104,$^{\circ}$C,
Propyphenazone,C$_{14}$H$_{18}$N$_{2}$O,,,,,,,,,
Cyclopropatriene,C$_{3}$,,,,,,,,,
DALT,C$_{16}$H$_{20}$N$_{2}$,,,,,,,,,
Levamisole,C$_{11}$H$_{12}$N$_{2}$S,,,,,,,,,
Emivirine,C$_{17}$H$_{22}$N$_{2}$O$_{3}$,,,,,,,,,
Scandium sulfate,Sc$_{2}$(SO$_{4}$)$_{3}$,,,,,,,,,soluble
Florantyrone,C$_{20}$H$_{14}$O$_{3}$,,,195,$^{\circ}$C,,,,,"soluble in methanol, ethanol, sodium carbonate"
Eperisone,C$_{17}$H$_{25}$NO,,,,,,,,,
Nitroapocynin,C$_{9}$H$_{9}$NO$_{5}$,,,,,,,,,
Repinotan,C$_{21}$H$_{24}$N$_{2}$O$_{4}$S,,,,,,,,,
Imazaquin,C$_{12}$H$_{17}$NO,,,219-222,$^{\circ}$C,1.35,g/cm$^{3}$,,,Soluble in water at 25
Eugenitin,C$_{12}$H$_{12}$O$_{4}$,220.22,g/mol,,,,,,,
Binimetinib,C$_{17}$H$_{15}$BrF$_{2}$N$_{4}$O$_{3}$,,,,,,,,,
Macromomycin B,C$_{12}$H$_{11}$NO$_{5}$,,,,,,,,,
Motrazepam,C$_{17}$H$_{15}$N$_{3}$O$_{4}$,,,,,,,,,
Abitesartan,C$_{26}$H$_{31}$N$_{5}$O$_{3}$,,,,,,,,,
Etolorex,C$_{12}$H$_{18}$ClNO,,,,,,,,,
Nilvadipine,C$_{19}$H$_{19}$N$_{3}$O$_{6}$,,,,,,,,,
Disperse Orange 1,C$_{18}$H$_{14}$N$_{4}$O$_{2}$,318.33476,g/mol,160.0,$^{\circ}$C,,,,,
Methyl ethyl ketone peroxide,C$_{8}$H$_{18}$O$_{6}$,,,,,,,,,soluble
Procyanidin C1,C$_{45}$H$_{38}$O$_{18}$,866.77,g/mol,,,,,,,
Inogatran,C$_{21}$H$_{38}$N$_{6}$O$_{4}$,438.6,g/mol,,,,,,,
Quisqualic acid,C$_{5}$H$_{7}$N$_{3}$O$_{5}$,189.126,g/mol,187-188,$^{\circ}$C,,,,,
Spiraprilat,C$_{16}$H$_{21}$NO$_{2}$,,,,,,,,,
Polyethylene terephthalate,(C$_{10}$H$_{8}$O$_{4}$)$_{n}$,,,,,,,,,practically insoluble
Efonidipine,C$_{34}$H$_{38}$N$_{3}$O$_{7}$P,,,,,,,,,
Thionyl fluoride,SOF$_{2}$,,,-110.5,$^{\circ}$C,,,-43.8,$^{\circ}$C,hydrolysis
Plerixafor,C$_{28}$H$_{54}$N$_{8}$,,,,,,,,,
Medical use of nitroglycerin,,,,,,,,,,
Goitrin,C$_{5}$H$_{7}$NOS,129.18,g/mol,,,,,,,
Hydramethylnon,C$_{25}$H$_{24}$F$_{6}$N$_{4}$,494.50,g/mol,185-190,$^{\circ}$C,,,,,
Asparaginase,C$_{1377}$H$_{2208}$N$_{382}$O$_{442}$S$_{17}$,,,,,,,,,
Hydroxyethyl cellulose,variable,,,140,$^{\circ}$C,,,,,
Enoxaparin sodium,,,,,,,,,,
RAM-378,C$_{24}$H$_{27}$NO$_{4}$,,,,,,,,,
Pipradrol,C$_{18}$H$_{21}$NO,,,,,,,,,
Strontium hydroxide,Sr(OH)$_{2}$,121.63,g/mol,535,$^{\circ}$C,3.625,g/cm$^{3}$,710,$^{\circ}$C,0.41
Chromium(II) acetate,C$_{8}$H$_{16}$Cr$_{2}$O$_{10}$,376.1988,g/mol,,,1.79,g/cm$^{3}$,,,"soluble in hot water, MeOH"
SER-601,C$_{28}$H$_{38}$N$_{2}$O$_{2}$,,,,,,,,,
Cabozantinib,C$_{23}$H$_{29}$N$_{3}$O$_{2}$,,,,,,,,,
Tiotropium bromide,,,,,,,,,,
Coelenterazine,C$_{26}$H$_{21}$N$_{3}$O$_{3}$,,,175-178,$^{\circ}$C,,,,,
Dextrorphan,C$_{17}$H$_{23}$NO,,,,,,,,,
Nizofenone,C$_{21}$H$_{21}$ClN$_{4}$O$_{3}$,,,,,,,,,
Glutaronitrile,C$_{5}$H$_{6}$N$_{2}$,,,,,,,,,
GR-127935,C$_{29}$H$_{31}$N$_{5}$O$_{3}$,,,,,,,,,
Diethyl azodicarboxylate,C$_{6}$H$_{10}$N$_{2}$O$_{4}$,,,6,$^{\circ}$C,1.11,g/cm$^{3}$,104.5,$^{\circ}$C,
Aflibercept,C$_{4318}$H$_{6788}$N$_{1164}$O$_{1304}$S$_{32}$,,,,,,,,,
Rimexolone,C$_{24}$H$_{34}$O$_{3}$,,,,,,,,,
Diisopropylzinc,C$_{6}$H$_{14}$Zn,151.58,g/mol,,,,,,,
Midostaurin,C$_{35}$H$_{30}$N$_{4}$O$_{4}$,,,,,,,,,
Methylenedioxybutylamphetamine,C$_{14}$H$_{19}$NO$_{2}$,235.325,g/mol,,,,,,,
Thioproscaline,C$_{13}$H$_{21}$NO$_{2}$S,255.376,g/mol,,,,,,,
Californium oxychloride,CfOCl,,,,,,,,,
Streptonigrin,C$_{25}$H$_{22}$N$_{4}$O$_{8}$,,,,,,,,,
Baicalein,C$_{15}$H$_{10}$O$_{5}$,,,,,,,,,
C-peptide,C$_{129}$H$_{211}$N$_{35}$O$_{48}$,3020.29,g/mol,,,,,,,
Cedrol,C$_{15}$H$_{26}$O,,,86-87,$^{\circ}$C,,,273,$^{\circ}$C,
Chromium trioxide,CrO$_{3}$,,,197,$^{\circ}$C,2.7,g/cm$^{3}$,250,$^{\circ}$C,164.8
Nitrosyl bromide,NOBr,,,,,,,14.5,$^{\circ}$C,
Magnoflorine,C20H24NO4+,342.40886,g/mol,,,,,,,
Secologanin,C$_{17}$H$_{24}$O$_{10}$,,,,,,,595.5,$^{\circ}$C,
Rufinamide,C$_{10}$H$_{8}$F$_{2}$N$_{4}$O,,,,,,,,,
Acrivastine,C$_{22}$H$_{24}$N$_{2}$O$_{2}$,,,,,,,,,
Caffeyl alcohol,C$_{9}$H$_{10}$O$_{3}$,,,144,$^{\circ}$C,,,,,moderate
Palladium(II) acetate,C$_{4}$H$_{6}$O$_{4}$Pd,224.50,g/mol,205,$^{\circ}$C,2.19,g/cm$^{3}$,,,low
Mesalazine,C$_{7}$H$_{7}$NO$_{3}$,,,,,,,,,
Clindamycin,C$_{18}$H$_{33}$ClN$_{2}$O$_{5}$S,,,,,,,,,
Spiramide,C$_{22}$H$_{27}$FN$_{3}$O$_{2}$,,,,,,,,,
Creosol,C$_{8}$H$_{10}$O$_{2}$,138.16,g/mol,5.5,$^{\circ}$C,1.092,g/cm$^{3}$,220,$^{\circ}$C,Slightly soluble
Nelarabine,C$_{11}$H$_{15}$N$_{5}$O$_{5}$,,,,,,,,,
Teduglutide,C$_{164}$H$_{252}$N$_{44}$O$_{55}$S,,,,,,,,,
Masitinib,C$_{28}$H$_{30}$N$_{6}$OS,,,,,,,,,
Carfilzomib,C$_{26}$H$_{27}$NO$_{2}$,,,,,,,,,
Cycloastragenol,C$_{30}$H$_{50}$O$_{5}$,490.72,g/mol,,,,,,,
Nitrogen trichloride,NCl$_{3}$,,,-40,$^{\circ}$C,,,71,$^{\circ}$C,immiscible
Tizoxanide,C$_{10}$H$_{7}$N$_{3}$O$_{4}$S,265.25,g/mol,,,,,,,
Triptane,C$_{7}$H$_{16}$,,,,,,,,,
Homovanillyl alcohol,C$_{9}$H$_{12}$O$_{3}$,168.19,g/mol,40-42,$^{\circ}$C,,,,,
Dithiothreitol,C$_{4}$H$_{10}$O$_{2}$S$_{2}$,154.253,g/mol,42-43,$^{\circ}$C,,,125-130,$^{\circ}$C,Soluble
Policosanol,chemical_formulaCH$_{3}$-(CH$_{2}$)$_{n}$-CH$_{2}$OHn24-34,,,,,,,,,
Idropranolol,C$_{16}$H$_{23}$NO$_{2}$,,,,,,,,,
Lymecycline,C$_{29}$H$_{38}$N$_{4}$O$_{10}$,,,,,,,,,
Bismuth(III) iodide,BiI$_{3}$,589.69,g/mol,408.6,$^{\circ}$C,5.778,g/cm$^{3}$,542,$^{\circ}$C,0.7761
Cerium(III) sulfate,Ce$_{2}$(SO$_{4}$)$_{3}$,568.42,g/mol,920,$^{\circ}$C,,,,,9.25
Porphin,C$_{20}$H$_{14}$N$_{4}$,310.35196,g/mol,,,,,,,
Enilconazole,C$_{14}$H$_{14}$Cl$_{2}$N$_{2}$O,,,50,$^{\circ}$C,,,347,$^{\circ}$C,1400
Indole-3-butyric acid,C$_{12}$H$_{13}$NO$_{2}$,,,125,$^{\circ}$C,,,,,
Cinitapride,C$_{21}$H$_{30}$N$_{4}$O$_{4}$,,,,,,,,,
Canaline,C$_{4}$H$_{10}$N$_{2}$O$_{3}$,,,,,,,378.1,$^{\circ}$C,
Netropsin,C$_{18}$H$_{26}$N$_{10}$O$_{3}$.2HCl,503.39,g/mol,,,,,,,
Diphenylhexatriene,C$_{18}$H$_{16}$,,,199-203,$^{\circ}$C,,,,,
Tetrahydro-2-furoic acid,C$_{5}$H$_{8}$O$_{3}$,,,21,$^{\circ}$C,,,135,$^{\circ}$C,
Arsenate,AsO$^{3-}_{4}$,,,,,,,,,
Eszopiclone,C$_{17}$H$_{17}$ClN$_{6}$O$_{3}$,,,,,,,,,
Lead(II) chloride,PbCl$_{2}$,278.10,g/mol,501,$^{\circ}$C,5.85,g/cm$^{3}$,950,$^{\circ}$C,10.8
Potassium picrate,C$_{6}$H$_{2}$KN$_{3}$O$_{7}$C$_{6}$H$_{2}$(NO$_{2}$)$_{3}$OK,267.194,g/mol,250,$^{\circ}$C,,,,,
Polonium hydride,PoH$_{2}$,210.998,g/mol,-35.3,$^{\circ}$C,,,36.1,$^{\circ}$C,
Gamma-Amanitin,C$_{39}$H$_{54}$N$_{10}$O$_{13}$S,902.97,g/mol,,,,,,,
SC-17599,C$_{28}$H$_{42}$FNO$_{4}$,,,,,,,,,
Punicacortein A,C$_{27}$H$_{22}$O$_{18}$,634.43,g/mol,,,,,,,
Clomethiazole,C$_{6}$H$_{8}$ClNS,,,,,,,,,
TPA-023,C$_{20}$H$_{22}$FN$_{7}$O,,,,,,,,,
Potassium nonahydridorhenate,K$_{2}$ReH$_{9}$,273.473,g/mol,,,,,,,
Uranyl carbonate,UO$_{2}$(CO$_{3}$),330,g/mol,,,,,,,
Alpha-Pyrrolidinobutiophenone,C$_{14}$H$_{19}$NO,,,,,,,,,
Ziconotide,C$_{102}$H$_{172}$N$_{36}$O$_{32}$S$_{7}$,,,,,,,,,
RTI-121,C$_{18}$H$_{24}$INO$_{2}$,,,,,,,,,
Triacsin C,C$_{11}$H$_{17}$N$_{3}$O,207.137,g/mol,,,,,,,
Bicuculline,C$_{20}$H$_{17}$NO$_{6}$,,,,,,,,,
Estratetraenol,C$_{18}$H$_{22}$O,,,,,,,,,
Stenbolone,C$_{20}$H$_{30}$O$_{2}$,302.45,g/mol,,,,,,,