Name,formula,Property Molar Mass,Property Molar Mass units,Property Melting Point,Property Melting Point units,Property Density,Property Density units,Property Boiling Point,Property Boiling Point units,Property Solubility
Diphenylphosphoryl azide,C$_{12}$H$_{10}$N$_{3}$O$_{3}$P,275.20,g/mol,,,1.277,g/cm$^{3}$,157,$^{\circ}$C,
Levuglandin,C$_{20}$H$_{32}$O$_{5}$,352.465,g/mol,,,,,,,
Rebamipide,C$_{19}$H$_{15}$ClN$_{2}$O$_{4}$,,,,,,,,,
Damascenone,C$_{13}$H$_{18}$O,190.28,g/mol,,,,,,,
Phosphorus pentasulfide,P$_{4}$S$_{10}$,,,288,$^{\circ}$C,2.09,g/cm$^{3}$,514,$^{\circ}$C,
N-Phenethyl-14-ethoxymetopon,C$_{27}$H$_{31}$NO$_{4}$,,,,,,,,,
LY-2183240,C$_{17}$H$_{17}$N$_{5}$O,,,,,,,,,
Allyl propyl disulfide,C$_{6}$H$_{12}$S$_{2}$,,,,,0.984,g/cm$^{3}$,,,Insoluble
Levothyroxine,C$_{15}$H$_{11}$I$_{4}$NO$_{4}$,,,231,$^{\circ}$C,,,,,Slightly soluble (0.105 mg$\cdot$l$^{-1}$ at 25 $^{\circ}$C)
LGD-2226,C$_{14}$H$_{9}$F$_{9}$N$_{2}$O,,,,,,,,,
Flusilazole,C$_{16}$H$_{15}$F$_{2}$N$_{3}$Si,,,,,315.392,g/cm$^{3}$,,,
Notholaenic acid,C$_{17}$H$_{18}$O$_{5}$,,,149-150,$^{\circ}$C,,,,,
Menthone,C$_{10}$H$_{18}$O,154.25,g/mol,-6,$^{\circ}$C,0.895,g/cm$^{3}$,207,$^{\circ}$C,
Potassium methoxide,CH$_{3}$KO,,,,,,,,,
Armstrong's acid,C$_{10}$H$_{8}$S$_{2}$O$_{6}$,288.299,g/mol,,,,,,,
Thorium tetrafluoride,ThF$_{4}$,308.03,g/mol,1110,$^{\circ}$C,6.3,g/cm$^{3}$,1680,$^{\circ}$C,
C70 fullerene,C$_{70}$,,,sublimates at ~850,$^{\circ}$C,1.7,g/cm$^{3}$,,,insoluble in water
Aluminium glycinate,,,,,,,,,,
Eugenodilol,C$_{22}$H$_{29}$NO$_{5}$,,,,,,,,,
Menatetrenone,C$_{31}$H$_{40}$O$_{2}$,,,,,,,,,
Oportuzumab monatox,,,,,,,,,,
Chelidonine,C$_{20}$H$_{19}$NO$_{5}$,353.36,g/mol,,,,,,,
Diosmin,C$_{28}$H$_{32}$O$_{15}$,,,,,,,,,
Perospirone,C$_{23}$H$_{30}$N$_{4}$O$_{2}$S,,,,,,,,,
Isotretinoin,C$_{20}$H$_{28}$O$_{2}$,,,,,,,,,
Nitrofural,C$_{6}$H$_{6}$N$_{4}$O$_{4}$,,,,,,,,,
Magnesium fluoride,MgF$_{2}$,62.3018,g/mol,1263,$^{\circ}$C,3.148,g/cm$^{3}$,2260,$^{\circ}$C,0.013
Tricresyl phosphate,C$_{21}$H$_{21}$O$_{4}$P,,,-40,$^{\circ}$C,,,255,$^{\circ}$C,
Malathion,C$_{10}$H$_{19}$O$_{6}$PS$_{2}$,,,2.9,$^{\circ}$C,1.23,g/cm$^{3}$,156-157,$^{\circ}$C,145
Nitrosoprodenafil,C$_{28}$H$_{38}$N$_{8}$O$_{5}$S$_{2}$,,,,,,,,,
Trimethylolpropane phosphite,C$_{6}$H$_{11}$O$_{3}$P,,,56,$^{\circ}$C,,,,,organic solvents
Propizepine,C$_{17}$H$_{20}$N$_{4}$O,,,,,,,,,
Darusentan,C$_{22}$H$_{22}$N$_{2}$O$_{6}$,,,,,,,,,
Aluminium sulfide,Al$_{2}$S$_{3}$,150.158,g/mol,1100,$^{\circ}$C,2.02,g/cm$^{3}$,1500,$^{\circ}$C,decomposes
Benzamil,C$_{13}$H$_{14}$ClN$_{7}$O,319.75,g/mol,,,,,,,
Fructose 6-phosphate,C$_{6}$H$_{13}$O$_{9}$P,260.14,g/mol,,,,,,,
Dehydroemetine,C$_{29}$H$_{38}$N$_{2}$O$_{4}$,,,,,,,,,
Leukotriene C4,C$_{30}$H$_{47}$N$_{3}$O$_{9}$S,625.775,g/mol,,,,,,,
Naphthalenetetracarboxylic dianhydride,C$_{14}$H$_{4}$O$_{6}$,,,>300,$^{\circ}$C,,,,,
Testosterone,C$_{19}$H$_{28}$O$_{2}$,,,,,,,,,
Thallous malonate,C$_{3}$H$_{2}$O$_{4}$Tl$_{2}$,510.812,g/mol,,,,,,,
Lorazepam,C$_{15}$H$_{10}$Cl$_{2}$N$_{2}$O$_{2}$,,,,,,,,,
U-90042,C$_{17}$H$_{13}$ClN$_{6}$O,,,,,,,,,
Glucobrassicin,C$_{16}$H$_{19}$N$_{2}$O$_{9}$S$^{-}_{2}$,447.46,g/mol,,,,,,,
Naltriben,C$_{26}$H$_{25}$NO$_{4}$,,,,,,,,,
Mitratapide,C$_{36}$H$_{41}$ClN$_{8}$O$_{4}$S,,,,,,,,,
Benzotriazole,C$_{6}$H$_{5}$N$_{3}$,,,100,$^{\circ}$C,,,350,$^{\circ}$C,20
Acenaphthoquinone,C$_{12}$H$_{6}$O$_{2}$,,,257-261,$^{\circ}$C,,,,,Insoluble (90.1 mg/l)
Chromyl fluoride,CrO$_{2}$F$_{2}$,112,g/mol,31.6,$^{\circ}$C,,,30,$^{\circ}$C,
Timolol,C$_{13}$H$_{24}$N$_{4}$O$_{3}$S,,,,,,,,,
Eutylone,C$_{13}$H$_{17}$NO$_{3}$,,,,,,,,,
Tungsten carbide,WC,,,2785-2830,$^{\circ}$C,15.6,g/cm$^{3}$,6000,$^{\circ}$C,Insoluble
Topiroxostat,C$_{13}$H$_{8}$N$_{6}$,,,,,,,,,
Clozapine,C$_{18}$H$_{19}$ClN$_{4}$,,,,,,,,,
Cicletanine,C$_{14}$H$_{12}$ClNO$_{2}$,,,,,,,,,
Vinylcyclohexene dioxide,C$_{8}$H$_{12}$O$_{2}$,,,-108.9,$^{\circ}$C,,,227,$^{\circ}$C,
Ranunculin,C$_{11}$H$_{16}$O$_{8}$,,,141-142,$^{\circ}$C,,,,,
TEX-explosive,C$_{6}$H$_{6}$N$_{4}$O$_{8}$,262.136,g/mol,,,,,,,
Cytarabine,C$_{9}$H$_{13}$N$_{3}$O$_{5}$,,,,,,,,,
Benthiocarb,C$_{12}$H$_{16}$ClNOS,,,3.3,$^{\circ}$C,,,126-129,$^{\circ}$C,28.0
Furan-2-ylmethanethiol,C$_{5}$H$_{6}$SO,,,,,,,,,
Cycloheptene,C$_{7}$H$_{12}$,96.17,g/mol,,,0.824,g/cm$^{3}$,112-114.7,$^{\circ}$C,
Esfenvalerate,C$_{25}$H$_{22}$ClNO$_{3}$,,,,,1.211,g/cm$^{3}$,,,
Tideglusib,C$_{19}$H$_{14}$N$_{2}$O$_{2}$S,,,,,,,,,
Antimony tetroxide,SbO$_{2}$Sb$_{2}$O$_{4}$,153.7588 307.5176,g/mol,,,6.64,g/cm$^{3}$,,,insoluble
Etoperidone,C$_{19}$H$_{28}$ClN$_{5}$O,,,,,,,,,
Vanadium(III) bromide,VBr$_{3}$,290.654,g/mol,,,,,,,soluble
Casticin,C$_{19}$H$_{18}$O$_{8}$,374.34,g/mol,,,,,,,
Caffeoylmalic acid,C$_{13}$H$_{12}$O$_{8}$,,,,,,,,,
Fenoprofen,C$_{15}$H$_{14}$O$_{3}$,,,,,,,,,
Medetomidine,C$_{13}$H$_{16}$N$_{2}$,,,,,,,,,
Sodium oxide,Na$_{2}$O,,,1132,$^{\circ}$C,2.27,g/cm$^{3}$,1950,$^{\circ}$C,reacts violently to form NaOH
Panadiplon,C$_{18}$H$_{17}$N$_{5}$O$_{2}$,,,,,,,,,
Norethisterone enanthate,,,,,,,,,,
Abarelix,C$_{72}$H$_{95}$ClN$_{14}$O$_{14}$,,,,,,,,,
Plutonium hydride,H$_{2}$Pu,,,,,,,,,
Gapicomine,C$_{12}$H$_{13}$N$_{3}$,,,,,,,,,
Phenylpropanoic acid,C$_{9}$H$_{10}$O$_{2}$,150.177,g/mol,47-50,$^{\circ}$C,1.126,g/cm$^{3}$,280,$^{\circ}$C,15.9
Boron phosphide,BP,41.7855,g/mol,1100,$^{\circ}$C,2.90,g/cm$^{3}$,,,
Triton X-100,C14H22O(C2H4O)$_{n}$(n$^{9-}$10),,,6,$^{\circ}$C,1.07,g/cm$^{3}$,270,$^{\circ}$C,Soluble
Homotaurine,C$_{3}$H$_{9}$NO$_{3}$S,,,293,$^{\circ}$C,,,,,
Picloxydine,C$_{20}$H$_{24}$Cl$_{2}$N$_{10}$,,,,,,,,,
Primulin (anthocyanin),C$_{23}$H$_{25}$ClO$_{12}$,528.89,g/mol,,,,,,,
Cortodoxone,C$_{21}$H$_{30}$O$_{4}$,,,215,$^{\circ}$C,,,,,
Mercury(I) bromide,Hg$_{2}$Br$_{2}$,560.99,g/mol,405,$^{\circ}$C,,,,,3.9
Indium(III) telluride,In$_{2}$Te$_{3}$,612.44,g/mol,667,$^{\circ}$C,,,,,
Thunberginol D,C$_{15}$H$_{12}$O$_{6}$,288.25,g/mol,,,,,,,
Polycaprolactone,(C$_{6}$H$_{10}$O$_{2}$)$_{n}$,,,60,$^{\circ}$C,1.145,g/cm$^{3}$,,,
Citrinin,C$_{13}$H$_{14}$O$_{5}$,,,175,$^{\circ}$C,,,,,Insoluble
Dexbrompheniramine,C$_{16}$H$_{19}$BrN$_{2}$,,,,,,,,,
Latanoprost,C$_{26}$H$_{40}$O$_{5}$,,,,,,,,,
Cyclothiazomycin,C$_{59}$H$_{64}$N$_{18}$O$_{14}$S$_{7}$,1473.71,g/mol,,,,,,,
Ibodutant,C$_{37}$H$_{48}$N$_{4}$O$_{4}$S,,,,,,,,,
Isopropyl thioxanthone,C$_{16}$H$_{14}$OS,254.35,g/mol,,,,,,,
Indacaterol,C$_{24}$H$_{28}$N$_{2}$O$_{3}$,,,,,,,,,
Dimepheptanol,C$_{21}$H$_{29}$NO,,,,,,,,,
Baicalin,C$_{21}$H$_{18}$O,,,202,$^{\circ}$C,,,,,
Engeletin,C$_{21}$H$_{22}$O$_{10}$,434.39,g/mol,,,,,,,
ABT-202,C$_{9}$H$_{13}$N$_{3}$,,,,,,,,,
Barium sulfate,BaSO$_{4}$,233.43,g/mol,1580,$^{\circ}$C,4.5,g/cm$^{3}$,1600,$^{\circ}$C,0.0002448
Coelenteramide,C$_{25}$H$_{21}$N$_{3}$O$_{3}$,,,,,,,678.298,$^{\circ}$C,
Diglycidyl ether,C$_{6}$H$_{10}$O$_{3}$,,,,,,,,,
Sodium bromate,NaBrO$_{3}$,150.892,g/mol,381,$^{\circ}$C,3.339,g/cm$^{3}$,1390,$^{\circ}$C,27.5
Delphinidin,C$_{15}$H$_{11}$O$^{+}_{7}$,,,,,,,,,
Apraclonidine,C$_{9}$H$_{10}$Cl$_{2}$N$_{4}$,,,,,,,,,
Carbuterol,C$_{13}$H$_{21}$N$_{3}$O$_{3}$,,,,,,,,,
Clonitazene,C$_{20}$H$_{23}$ClN$_{4}$O$_{2}$,,,,,,,,,
Lanatoside C,,,,,,,,,,
SDB-001,C$_{24}$H$_{32}$N$_{2}$O,,,,,,,,,
Thallium(I) iodide,TlI,331.29,g/mol,442,$^{\circ}$C,,,823,$^{\circ}$C,negligible
Clevudine,C$_{10}$H$_{13}$FN$_{2}$O$_{5}$,,,,,,,,,
Benzotriyne,C$_{6}$,,,,,,,,,
Mibolerone,C$_{20}$H$_{30}$O$_{2}$,,,,,,,,,
Hydrazine,N$_{2}$H$_{4}$,,,,,,,,,miscible
L-655 708,,,,,,,,,,
Orthoformic acid,CH$_{4}$O$_{3}$,,,,,,,,,
Ospemifene,C$_{24}$H$_{23}$ClO$_{2}$,,,,,,,,,
Tert-Butyllithium,LiC$_{4}$H$_{9}$,,,,,,,36,$^{\circ}$C,Reacts
Chloropyramine,C$_{16}$H$_{20}$ClN$_{3}$,,,,,,,,,
Corannulene,C$_{20}$H$_{10}$,250.29,g/mol,,,,,,,
Teniposide,C$_{32}$H$_{32}$O$_{13}$S,,,,,,,,,
Magnesium silicide,Mg$_{2}$Si,,,1102,$^{\circ}$C,,,,,
Palifermin,C$_{721}$H$_{1142}$N$_{202}$O$_{204}$S$_{9}$,,,,,,,,,
Marein,C$_{21}$H$_{22}$O$_{11}$,450.39,g/mol,,,,,,,
O-1918,C$_{19}$H$_{26}$O$_{2}$,,,,,,,,,
Calcium carbimide,,,,,,,,,,
Quinelorane,C$_{14}$H$_{22}$N$_{4}$,,,,,,,,,
Erbium(III) oxide,Er$_{2}$O$_{3}$,382.56,g/mol,2344,$^{\circ}$C,8.64,g/cm$^{3}$,3290,$^{\circ}$C,insoluble in water
Deuterated dichloromethane,C$^{2}$H$_{2}$Cl$_{2}$,,,,,,,40,$^{\circ}$C,
Ferulic acid,C$_{10}$H$_{10}$O$_{4}$,194.18,g/mol,168-172,$^{\circ}$C,,,,,
Phosphoryl fluoride,POF$_{3}$,103.9684,g/mol,,,,,-39.7,$^{\circ}$C,Reacts
Chromium(III) bromide,CrBr$_{3}$,291.71,g/mol,1130,$^{\circ}$C,4.25,g/cm$^{3}$,,,"insoluble in cold water, soluble with addition of Chromium(II) ion salts, soluble in hot water"
Sulfolane,C$_{4}$H$_{8}$O$_{2}$S,120.17,g/mol,27.5,$^{\circ}$C,,,285,$^{\circ}$C,miscible
Methyl violet,C$_{24}$H$_{28}$N$_{3}$Cl,,,137,$^{\circ}$C,,,,,"Soluble in water, ethanol, insoluble in xylene"
Scyllo-Inositol,C$_{6}$H$_{12}$O$_{6}$,,,348.5-350,$^{\circ}$C,,,,,
Enoxacin,C$_{15}$H$_{17}$FN$_{4}$O$_{3}$,,,,,,,,,
Coptisine,C$_{19}$H$_{14}$NO$_{4}$+,,,,,,,,,
Diampromide,C$_{21}$H$_{28}$N$_{2}$O,,,,,,,,,
Fluproquazone,C$_{18}$H$_{17}$FN$_{2}$O,,,,,,,,,
Lodenafil,C$_{47}$H$_{62}$N$_{12}$O$_{11}$S$_{2}$,,,,,,,,,
Sulfalene,C$_{11}$H$_{12}$N$_{4}$O$_{3}$S,,,,,,,,,
Norgestimate,C$_{23}$H$_{31}$NO$_{3}$,,,,,,,,,
Quassin,C$_{22}$H$_{28}$O$_{6}$,,,200-222,$^{\circ}$C,,,586,$^{\circ}$C,Insoluble
Pinostilbene,C$_{15}$H$_{14}$O$_{3}$,242.27,g/mol,,,,,,,
Bismuth silicon oxide,Bi$_{12}$SiO$_{20}$,,,884,$^{\circ}$C,,,,,
Quinolinic acid,C$_{7}$H$_{5}$NO$_{4}$,167.12,g/mol,185-190,$^{\circ}$C,,,,,
Protodioscin,C$_{51}$H$_{84}$O$_{22}$,,,,,,,,,
Taxillusin,C$_{28}$H$_{26}$O$_{16}$,,,,,,,,,
Tiflorex,C$_{12}$H$_{16}$F$_{3}$NS,,,,,,,,,
Trisescaline,C$_{14}$H$_{23}$NO$_{3}$,253.337,g/mol,,,,,,,
Kinetin,C$_{10}$H$_{9}$N$_{5}$O,215.21,g/mol,,,,,,,
Harmaline,C$_{13}$H$_{14}$N$_{2}$O,,,232-234,$^{\circ}$C,,,,,
Chlortoluron,C$_{10}$H$_{13}$ClN$_{2}$O,,,,,,,,,
Noribogaine,C$_{19}$H$_{24}$N$_{2}$O,,,,,,,,,
Amperozide,C$_{23}$H$_{29}$F$_{2}$N$_{3}$O,,,,,,,,,
Propiverine,C$_{23}$H$_{29}$NO$_{3}$,,,,,,,,,
Letosteine,C$_{10}$H$_{17}$NO$_{4}$S$_{2}$,,,,,,,,,
Ibopamine,C$_{17}$H$_{25}$NO$_{4}$,,,,,,,,,
JWH-051,C$_{25}$H$_{38}$O$_{2}$,,,,,,,,,
Theodrenaline,C$_{17}$H$_{21}$N$_{5}$O$_{5}$,,,,,,,,,
Lithium hexafluorophosphate,LiPF$_{6}$,151.905,g/mol,200,$^{\circ}$C,1.5,g/cm$^{3}$,,,soluble
Tangeritin,C$_{20}$H$_{20}$O$_{7}$,372.37,g/mol,155-156,$^{\circ}$C,,,,,
Cadmium(I) tetrachloroaluminate,Cd$_{2}$Al$_{2}$Cl$_{8}$,562.4123,g/mol,,,,,,,
Actinidiolide,C$_{11}$H$_{14}$O$_{2}$,,,,,,,,,
Curculigoside A,C$_{22}$H$_{26}$O$_{11}$,466.43,g/mol,,,,,,,
Norelgestromin,C$_{21}$H$_{29}$NO$_{2}$,,,,,,,,,
Entacapone,C$_{14}$H$_{15}$N$_{3}$O$_{5}$,,,,,,,,,
Nitrogen triiodide,I$_{3}$N,394.719,g/mol,,,,,,,Insoluble
Alpha-Phenylcinnamic acid,C$_{15}$H$_{12}$O$_{2}$,,,172-174,$^{\circ}$C,,,224-225,$^{\circ}$C,Slightly soluble
Blisibimod,C$_{2836}$H$_{4376}$N$_{756}$O$_{858}$S$_{26}$,,,,,,,,,
Temafloxacin,C$_{21}$H$_{18}$F$_{3}$N$_{3}$O$_{3}$,,,,,,,,,
Riociguat,C$_{20}$H$_{19}$FN$_{8}$O$_{2}$,,,,,,,,,
UR-144,C$_{21}$H$_{29}$NO,,,,,,,,,
Acetoin,C$_{4}$H$_{8}$O$_{2}$,,,15,$^{\circ}$C,1.012,g/cm$^{3}$,148,$^{\circ}$C,soluble
Tung oil,C$_{2}$HF$_{5}$,,,,,,,,,
Ethacizine,C$_{22}$H$_{27}$N$_{3}$O$_{3}$S,,,,,,,,,
Kumatakenin,C$_{17}$H$_{14}$O$_{6}$,314.28,g/mol,,,,,,,
Acibenzolar,C$_{7}$N$_{2}$H$_{4}$S$_{2}$O,,,,,,,,,
SoRI-20041,C$_{29}$H$_{25}$N$_{3}$,,,,,,,,,
Cellulose,(C$_{6}$H$_{10}$O$_{5}$)N,,,,,1.5,g/cm$^{3}$,,,none
Sodium tetraphenylborate,(C$_{6}$H$_{5}$)$_{4}$BNa,342.216,g/mol,>300,$^{\circ}$C,,,,,47
Bevirimat,C$_{36}$H$_{56}$O$_{6}$,,,,,,,,,
Bromazepam,C$_{14}$H$_{10}$BrN$_{3}$O,,,,,,,,,
Cefmenoxime,C$_{16}$H$_{17}$N$_{9}$O$_{5}$S$_{3}$,,,,,,,,,
Syntin,C$_{10}$H$_{16}$,,,,,,,158,$^{\circ}$C,
Isocoproporphyrin,C$_{36}$H$_{38}$N$_{4}$O$_{8}$,,,,,,,,,
F-22 (psychedelic),C$_{14}$H$_{21}$NO$_{2}$,235.325,g/mol,,,,,,,
Pyrazophos,C$_{14}$H$_{20}$N$_{3}$O$_{5}$PS,,,51-52,$^{\circ}$C,1.348,g/cm$^{3}$,decomposes at 160,$^{\circ}$C,4.2
N N-Dimethylethylamine,C$_{4}$H$_{11}$N,,,-140,$^{\circ}$C,0.7$\pm$0.1,g/cm$^{3}$,36.5,$^{\circ}$C,
Methylenedioxymethylphenethylamine,C$_{10}$H$_{13}$NO$_{2}$,,,,,,,,,
Tetrafluorohydrazine,N$_{2}$F$_{4}$,,,-164.5,$^{\circ}$C,,,-73,$^{\circ}$C,
WAY-181 187,,,,,,,,,,
Dacarbazine,C$_{6}$H$_{10}$N$_{6}$O,,,,,,,,,
Disulfur monoxide,S$_{2}$O,80.1294,g/mol,,,,,,,
Flucytosine,C$_{4}$H$_{4}$FN$_{3}$O,,,,,,,,,
Butyric anhydride,C$_{8}$H$_{14}$O$_{3}$,158.19,g/mol,-75,$^{\circ}$C,,,198,$^{\circ}$C,
Icariin,C$_{33}$H$_{40}$O$_{15}$,,,,,,,,,
Hexane-2 5-dione,C$_{6}$H$_{10}$O$_{2}$,,,-5.5,$^{\circ}$C,,,191.4,$^{\circ}$C,$\geq$ 10
Piceatannol,C$_{14}$H$_{12}$O$_{4}$,,,,,,,,,
Dibenzocycloheptene,C$_{15}$H$_{14}$,194.27,g/mol,,,,,,,
Muromonab-CD3,C$_{6460}$H$_{9946}$N$_{1720}$O$_{2043}$S$_{56}$,,,,,,,,,
Tetraethylammonium iodide,C$_{8}$H$_{20}$IN,,,280,$^{\circ}$C,1.566,g/cm$^{3}$,,,soluble
Isopropylphenidate,C$_{16}$H$_{23}$NO$_{2}$,,,,,,,,,
Punigluconin,C$_{34}$H$_{26}$O$_{23}$,802.53,g/mol,,,,,,,
Cyanoacetamide,C$_{3}$H$_{4}$N$_{2}$O,,,119,$^{\circ}$C,1.163,g/cm$^{3}$,351.2,$^{\circ}$C,
Flunarizine,C$_{26}$H$_{26}$F$_{2}$N$_{2}$,,,,,,,,,
CP-94253,C$_{15}$H$_{19}$N$_{3}$O,,,,,,,,,
OSU-6162,C$_{15}$H$_{23}$NO$_{2}$S,,,,,,,,,
LPD-824,C$_{20}$H$_{23}$N$_{3}$O,,,,,,,,,
Copaene,C$_{15}$H$_{24}$,,,,,,,124,$^{\circ}$C,
HEPPS (molecule),C$_{9}$H$_{20}$N$_{2}$O$_{4}$S,252.332,g/mol,,,,,,,
Mevinphos,C$_{7}$H$_{13}$O$_{6}$P,,,,,,,21,$^{\circ}$C,miscible
Dimethylthiambutene,C$_{14}$H$_{17}$NS$_{2}$,,,169,$^{\circ}$C,,,,,
Azosemide,C$_{12}$H$_{11}$ClN$_{6}$O$_{2}$S$_{2}$,,,,,,,,,
Ro5-4864,C$_{16}$H$_{12}$Cl$_{2}$N$_{2}$O,,,,,,,,,
Phosphatidylinositol (3 4 5)-trisphosphate,C$_{47}$H$_{86}$O$_{22}$P$_{4}$,,,,,,,,,
Phenylmagnesium bromide,C$_{6}$H$_{5}$MgBr,,,,,,,,,Reacts with water
Bilobol,C$_{21}$H$_{34}$O$_{2}$,318.49,g/mol,,,,,,,
Glycyrrhizol,C$_{26}$H$_{28}$O$_{5}$,420.50,g/mol,,,,,,,
Zirconium carbide,ZrC,,,3532-3540,$^{\circ}$C,6.73,g/cm$^{3}$,5100,$^{\circ}$C,Insoluble
Quinine,C$_{20}$H$_{24}$N$_{2}$O$_{2}$,,,,,,,,,
Daidzein,C$_{15}$H$_{10}$O$_{4}$,254.23,g/mol,315-323,$^{\circ}$C,,,,,
Silver(I) selenide,Ag$_{2}$Se,294.7,g/mol,896.85,$^{\circ}$C,,,,,insoluble
Silicon carbide,CSi,,,2730,$^{\circ}$C,,,,,
Triazabicyclodecene,C$_{7}$H$_{13}$N$_{3}$,139.20,g/mol,125-130,$^{\circ}$C,,,,,
Potassium sorbate,C$_{6}$H$_{7}$KO$_{2}$,,,270,$^{\circ}$C,1.363,g/cm$^{3}$,,,58.5
Calmagite,C$_{17}$H$_{14}$N$_{2}$O$_{5}$S,,,330,$^{\circ}$C,,,,,
Dichloroacetylene,C$_{2}$Cl$_{2}$,,,-66--64,$^{\circ}$C,1.26,g/cm$^{3}$,33,$^{\circ}$C,insoluble
Xenic acid,H$_{2}$XeO$_{4}$,197.31,g/mol,,,,,,,
Potassium bromide,KBr,119.002,g/mol,734,$^{\circ}$C,2.74,g/cm$^{3}$,1435,$^{\circ}$C,4.76
Docosanol,C$_{22}$H$_{46}$O,,,,,,,,,
Uranyl chloride,UO$_{2}$Cl$_{2}$,,,,,,,,,
Norepinephrine,C$_{8}$H$_{11}$NO$_{3}$,,,,,,,,,
Protocatechuic acid,C$_{7}$H$_{6}$O$_{4}$,154.12,g/mol,221,$^{\circ}$C,1.54,g/cm$^{3}$,,,1.24
Phenyl salicylate,C$_{13}$H$_{10}$O$_{3}$,214.22,g/mol,41.5,$^{\circ}$C,1.25,g/cm$^{3}$,173,$^{\circ}$C,1
Roquinimex,C$_{18}$H$_{16}$N$_{2}$O$_{3}$,,,,,,,,,
Metirosine,C$_{10}$H$_{13}$NO$_{3}$,,,,,,,,,
LY-272 015,,,,,,,,,,
Cyanamide,CH$_{2}$N$_{2}$,42.040,g/mol,44,$^{\circ}$C,1.28,g/cm$^{3}$,260,$^{\circ}$C,85
Mitiglinide,C$_{19}$H$_{25}$NO$_{3}$,,,,,,,,,
Paraquat,C$_{12}$H$_{14}$Cl$_{2}$N$_{2}$,,,175-180,$^{\circ}$C,1.25,g/cm$^{3}$,,,
Ansoxetine,C$_{26}$H$_{25}$NO$_{3}$,,,,,,,,,
Hydroxycarteolol,C$_{16}$H$_{24}$N$_{2}$O$_{4}$,,,,,,,,,
Isocitric acid,C$_{6}$H$_{8}$O$_{7}$,,,105,$^{\circ}$C,,,,,
Meclonazepam,C$_{16}$H$_{12}$ClN$_{3}$O$_{3}$,,,,,,,,,
Tin(II) bromide,SnBr$_{2}$,278.518,g/mol,215,$^{\circ}$C,,,639,$^{\circ}$C,
Ethulose,chemical_formulavariable,,,,,,,,,
Sofalcone,C$_{27}$H$_{30}$O$_{6}$,,,,,,,,,
Sodium bis(2-methoxyethoxy)aluminumhydride,C$_{6}$H$_{16}$AlNaO$_{4}$,,,,,,,,,
Para-Cresidine,C$_{8}$H$_{11}$NO,,,51.5,$^{\circ}$C,,,235,$^{\circ}$C,
Hydrochlorothiazide,C$_{7}$H$_{8}$ClN$_{3}$O$_{4}$S$_{2}$,,,,,,,,,
Bicyclo(2.2.1)heptane-2-carbonitrile,C$_{8}$H$_{11}$N,,,43-45,$^{\circ}$C,,,73-75,$^{\circ}$C,
Calcium perchlorate,Ca(ClO$_{4}$)$_{2}$,238.9792,g/mol,270,$^{\circ}$C,,,,,188
Barium sulfide,BaS,169.39,g/mol,1200,$^{\circ}$C,4.25,g/cm$^{3}$,,,2.88
CP 55 244,,,,,,,,,,
Cyclopentadiene,C$_{5}$H$_{6}$,,,,,,,,,insoluble
Oleic acid,C$_{18}$H$_{34}$O$_{2}$,,,13,$^{\circ}$C,,,360,$^{\circ}$C,Insoluble
Isoethcathinone,C$_{11}$H$_{15}$NO,,,,,,,,,
Tanezumab,C$_{6464}$H$_{9942}$N$_{1706}$O$_{2026}$S$_{46}$,,,,,,,,,
Ortho-Vanillin,C$_{8}$H$_{8}$O$_{3}$,152.15,g/mol,40-42,$^{\circ}$C,,,265-266,$^{\circ}$C,
Plumbagin,C$_{11}$H$_{8}$O$_{3}$,188.17942,g/mol,,,,,,,
Carbon disulfide,CS$_{2}$,,,-111.61,$^{\circ}$C,1.539,g/cm$^{3}$,46.24,$^{\circ}$C,0.258
Piceol,C$_{8}$H$_{8}$O$_{2}$,136.15,g/mol,,,,,,,
Naphthylpiperazine,C$_{14}$H$_{16}$N$_{2}$,,,,,,,,,
Methyl chloroformate,C$_{2}$H$_{3}$ClO$_{2}$,,,,,,,70-72,$^{\circ}$C,
Kojic acid,C$_{6}$H$_{6}$O$_{4}$,142.11,g/mol,152-155,$^{\circ}$C,,,,,Slight
Strontium chromate,SrCrO$_{4}$,203.614,g/mol,,,3.353,g/cm$^{3}$,,,0.12
RTI-113,C$_{21}$H$_{22}$ClNO$_{2}$,,,,,,,,,
Molybdenum(II) acetate,C$_{8}$H$_{12}$Mo$_{2}$O$_{8}$,428.1010,g/mol,,,,,,,not soluble
Iron(II) bromide,FeBr$_{2}$,,,684,$^{\circ}$C,,,934,$^{\circ}$C,
JWH-193,C$_{26}$H$_{26}$N$_{2}$O$_{2}$,,,,,,,,,
Nickel(II) acetylacetonate,C$_{10}$H$_{14}$NiO$_{4}$orC$_{30}$H$_{42}$Ni$_{3}$O$_{12}$(trimer),256.91,g/mol,229.5,$^{\circ}$C,1.455,g/cm$^{3}$,,,H$_{2}$O
Copper aspirinate,C$_{36}$H$_{28}$Cu$_{2}$O$_{16}$,,,248-255,$^{\circ}$C,,,,,
Trioxsalen,C$_{14}$H$_{12}$O$_{3}$,,,,,,,,,
Lumiracoxib,C$_{15}$H$_{13}$ClFNO$_{2}$,,,,,,,,,
Pirimiphos-methyl,C$_{11}$H$_{20}$N$_{3}$O$_{3}$PS,,,15-18,$^{\circ}$C,,,,,5.0
Lithium aluminium hydride,LiAlH$_{4}$,37.95,g/mol,150,$^{\circ}$C,,,,,
Sodium malate,C$_{4}$H$_{4}$Na$_{2}$O$_{5}$,178.05,g/mol,,,,,,,
Vemurafenib,C$_{23}$H$_{18}$ClF$_{2}$N$_{3}$O$_{3}$S,,,,,,,,,
Fura-2-acetoxymethyl ester,C$_{44}$H$_{47}$N$_{3}$O$_{24}$,,,,,,,,,
N-Phenethyl-4-piperidinone,C$_{13}$H$_{17}$NO,203.28,g/mol,56,$^{\circ}$C,1.057,g/cm$^{3}$,,,
NAPQI,C$_{8}$H$_{7}$NO$_{2}$,,,,,,,,,
Antimony trisulfide,Sb$_{2}$S$_{3}$,,,620,$^{\circ}$C,,,,,
Dimethyl sulfoxide,C$_{2}$H$_{6}$OS,,,19,$^{\circ}$C,,,189,$^{\circ}$C,
Muconic acid,C$_{6}$H$_{6}$O$_{4}$,,,194-195,$^{\circ}$C,,,345,$^{\circ}$C,1
Uranium tetrachloride,UCl$_{4}$,379.84,g/mol,590,$^{\circ}$C,4.87,g/cm$^{3}$,791,$^{\circ}$C,
Hexapropymate,C$_{10}$H$_{15}$NO$_{2}$,,,,,,,,,
Fenobam,C$_{11}$H$_{11}$ClN$_{4}$O$_{2}$,,,,,,,,,
Tetrahedrane,C$_{4}$H$_{4}$,,,,,,,,,
N-Glycolylneuraminic acid,C$_{11}$H$_{19}$NO$_{10}$,325.27,g/mol,,,,,,,
Sodium molybdate,Na$_{2}$MoO$_{4}$,205.92,g/mol,687,$^{\circ}$C,,,,,84
Aloe emodin,,,,223,$^{\circ}$C,,,,,
Tezacitabine,C$_{10}$H$_{12}$FN$_{3}$O$_{4}$,,,,,,,,,
Methoxymethylfurfural,C$_{7}$H$_{8}$O$_{3}$,,,-8,$^{\circ}$C,,,109-111,$^{\circ}$C,
Riboflavin,C$_{17}$H$_{20}$N$_{4}$O$_{6}$,,,,,,,,,
Deslorelin,C$_{64}$H$_{83}$N$_{17}$O$_{12}$,,,,,,,,,
Lapyrium,C$_{21}$H$_{35}$N$_{2}$O$_{3}$,,,141,$^{\circ}$C,,,,,
Clorindione,C$_{15}$H$_{9}$ClO$_{2}$,,,,,,,,,
Ponatinib,C$_{23}$H$_{29}$N$_{3}$O$_{2}$,,,,,,,,,
Cyclotetradecaheptaene,C$_{14}$H$_{14}$,,,,,,,,,Insoluble
Fenpiverinium,C22H29N2O1charge+,,,,,,,,,
Acetone thiosemicarbazone,C$_{4}$H$_{9}$N$_{3}$S,,,172-175,$^{\circ}$C,,,,,
Nitrous oxide,N$_{2}$O,44.013,g/mol,-90.86,$^{\circ}$C,,,-88.48,$^{\circ}$C,1.5
Nitropentaamminecobalt(III) chloride,H$_{15}$N$_{6}$O$_{2}$Cl$_{2}$Co,261.00,g/mol,,,,,,,
Aluminium chloride,AlCl$_{3}$,133.34,g/mol,192.4,$^{\circ}$C,2.48,g/cm$^{3}$,120,$^{\circ}$C,43.9
Calcium bromate,Ca(BrO$_{3}$)$_{2}$,295.8824,g/mol,,,,,,,
Zirconyl chloride,Cl$_{2}$OZr,,,,,,,,,
Myriocin,C$_{21}$H$_{39}$NO$_{6}$,401.54,g/mol,,,,,,,
Ferrate(VI),FeO$^{2-}_{4}$,,,,,,,,,
Nalidixic acid,,,,,,,,,,
Zinc nitrate,Zn(NO$_{3}$)$_{2}$,189.36,g/mol,110,$^{\circ}$C,2.065,g/cm$^{3}$,~ 125,$^{\circ}$C,327
Arofylline,C$_{14}$H$_{13}$ClN$_{4}$O$_{2}$,304.73,g/mol,,,,,,,
AM-679 (cannabinoid),,,,,,,,,,
Diglyme,C$_{6}$H$_{14}$O$_{3}$,,,-64,$^{\circ}$C,,,162,$^{\circ}$C,miscible
Ufenamate,C$_{18}$H$_{18}$F$_{3}$NO$_{2}$,,,,,,,,,
Phenacetin,C$_{10}$H$_{13}$NO$_{2}$,,,,,,,,,
Niguldipine,C$_{36}$H$_{39}$N$_{3}$O$_{6}$,,,,,,,,,
Convallamarin,C$_{57}$H$_{94}$O$_{27}$,,,,,,,,,