Name,formula,Property Molar Mass,Property Molar Mass units,Property Melting Point,Property Melting Point units,Property Density,Property Density units,Property Boiling Point,Property Boiling Point units,Property Solubility
Sulcotidil,C$_{20}$H$_{35}$NOS,,,,,,,,,
Benzenesulfonyl chloride,C$_{6}$H$_{5}$ClO$_{2}$S,,,13-14,$^{\circ}$C,,,,,reacts
Bromethalin,C$_{14}$H$_{7}$Br$_{3}$F$_{3}$N$_{3}$O$_{4}$,577.93,g/mol,,,,,,,
Hygromycin B,,,,160,$^{\circ}$C,,,,,
Ammonium sulfamate,H$_{6}$N$_{2}$O$_{3}$S,114.125,g/mol,131,$^{\circ}$C,1.8,g/cm$^{3}$,160,$^{\circ}$C,very soluble
Diptoindonesin A,C$_{34}$H$_{32}$O$_{11}$,616.61,g/mol,,,,,,,
Aminolevulinic acid,,,,,,,,,,
Ferric subsulfate solution,,,,,,,,,,
Brophebarbital,C$_{12}$H$_{11}$BrN$_{2}$O$_{3}$,,,,,,,,,
Deuterated chloroform,CDCl$_{3}$,,,-64,$^{\circ}$C,,,61,$^{\circ}$C,
Vinflunine,C$_{45}$H$_{54}$F$_{2}$N$_{4}$O$_{8}$,,,,,,,,,
Amthamine,C$_{6}$H$_{11}$N$_{3}$S,157.236,g/mol,,,,,,,
Bacillosamine,C$_{6}$H$_{14}$N$_{2}$O$_{3}$,,,,,,,,,
Fenoterol,C$_{17}$H$_{21}$NO$_{4}$,,,,,,,,,
Rubitecan,C$_{20}$H$_{15}$N$_{3}$O$_{6}$,,,,,,,,,
Ambutonium bromide,C$_{20}$H$_{27}$BrN$_{2}$O,391.35,g/mol,,,,,,,
Geldanamycin,C$_{29}$H$_{40}$N$_{2}$O$_{9}$,560.64,g/mol,,,,,,,
Antirrhinin,"C$_{27}$H$_{31}$O$_{15}^{+}$,Cl$^{-}$",630.97,g/mol,,,,,,,
Eusiderin,C$_{22}$H$_{26}$O$_{6}$,386.42,g/mol,,,,,,,
Tetrasulfur tetranitride,N$_{4}$S$_{4}$,,,187,$^{\circ}$C,,,,,
Lestaurtinib,C$_{26}$H$_{21}$N$_{3}$O$_{4}$,,,,,,,,,
Iproniazid,C$_{9}$H$_{13}$N$_{3}$O,,,,,,,,,
Denopamine,C$_{18}$H$_{23}$NO$_{4}$,,,,,,,,,
Ketorolac,C$_{15}$H$_{13}$NO$_{3}$,,,,,,,,,
Vinylacetylene,C$_{4}$H$_{4}$,52.07456,g/mol,,,,,0-6,$^{\circ}$C,low
Pegaptanib,chemical_formulaC$_{294}$H$_{342}$F$_{13}$N$_{107}$Na$_{28}$O$_{188}$P$_{28}$[C$_{2}$H$_{4}$O]$_{2n}$(n$\in$900),,,,,,,,,
Tephrosin,C$_{23}$H$_{22}$O$_{7}$,410.41658,g/mol,,,,,,,
Sodium hydroxide,NaOH,,,318,$^{\circ}$C,2.13,g/cm$^{3}$,1388,$^{\circ}$C,<<139
Oxybutynin,C$_{22}$H$_{31}$NO$_{3}$,,,,,,,,,
Sigmodal,C$_{12}$H$_{17}$BrN$_{2}$O$_{3}$,,,,,,,,,
Sodium thiocyanate,NaSCN,81.072,g/mol,287,$^{\circ}$C,1.735,g/cm$^{3}$,307,$^{\circ}$C,139
Rhenium pentachloride,ReCl$_{5}$,363.471,g/mol,220,$^{\circ}$C,,,,,Will react to decompose and release HCl (g)
Sanguiin H-6,C$_{82}$H$_{54}$O$_{52}$,1871.27,g/mol,,,,,,,
Idoxifene,C$_{28}$H$_{30}$INO,,,,,,,,,
Thorium(IV) orthosilicate,O$_{4}$SiTh,,,,,,,,,
Chloroacetaldehyde,C$_{2}$H$_{3}$ClO,,,-16.3,$^{\circ}$C,,,85-85.5,$^{\circ}$C,soluble
Trisilane,H$_{8}$Si$_{3}$,,,-117,$^{\circ}$C,,,53,$^{\circ}$C,
Ammeline,C$_{3}$H$_{5}$N$_{5}$O,127.11,g/mol,,,,,,,trace
Adhyperforin,C$_{36}$H$_{54}$O$_{4}$,,,,,,,,,
Tiagabine,C$_{20}$H$_{25}$NO$_{2}$S$_{2}$,,,,,,,,,
Dimemebfe,C$_{13}$H$_{17}$NO$_{2}$,,,,,,,,,
Salvinorin B ethoxymethyl ether,,,,,,,,,,
Carbyl sulfate,C$_{2}$H$_{4}$O$_{6}$S$_{2}$,,,107.5-109,$^{\circ}$C,,,,,
Enrofloxacin,C$_{19}$H$_{22}$FN$_{3}$O$_{3}$,,,,,,,,,
Sodium peroxide,Na$_{2}$O$_{2}$,77.98,g/mol,460,$^{\circ}$C,2.805,g/cm$^{3}$,657,$^{\circ}$C,reacts violently
Isocodeine,C$_{18}$H$_{21}$NO$_{3}$,,,173-174,$^{\circ}$C,,,,,
Allylglycine,C$_{5}$H$_{9}$NO$_{2}$,115.13,g/mol,265,$^{\circ}$C,,,231,$^{\circ}$C,
Melperone,C$_{16}$H$_{22}$FNO,,,,,,,,,
Droxidopa,C$_{9}$H$_{11}$NO$_{5}$,,,,,,,,,
Acetyl chloride,CH$_{3}$COCl,78.49,g/mol,-112,$^{\circ}$C,,,52,$^{\circ}$C,Reacts with water
Methamidophos,C$_{2}$H$_{8}$NO$_{2}$PS,141.1,g/mol,44.5,$^{\circ}$C,1.31,g/cm$^{3}$,,,
Fenbutrazate,C$_{23}$H$_{29}$NO$_{3}$,,,,,,,,,
Perchloromethyl mercaptan,CSCl$_{4}$,,,-44,$^{\circ}$C,1.72,g/cm$^{3}$,147,$^{\circ}$C,insoluble
ICI-190 622,,,,,,,,,,
Tirofiban,C$_{22}$H$_{36}$N$_{2}$O$_{5}$S,,,,,,,,,
La$\beta$lol,C$_{19}$H$_{24}$N$_{2}$O$_{3}$,,,,,,,,,
Irigenin,C$_{18}$H$_{16}$O$_{8}$,360.31,g/mol,,,,,,,
Irilone,C$_{16}$H$_{10}$O$_{6}$,298.24,g/mol,,,,,,,
Flufenamic acid,,,,,,,,,,
Gallium(III) oxide,Ga$_{2}$O$_{3}$,187.444,g/mol,1900,$^{\circ}$C,,,,,insoluble
Lithium iron phosphate,FeLiO$_{4}$P,,,,,,,,,
Chlorodiphenylphosphine,C$_{12}$H$_{10}$ClP,,,,,,,320,$^{\circ}$C,Reacts
VX (nerve agent),C$_{11}$H$_{26}$NO$_{2}$PS,,,-3.90,$^{\circ}$C,,,300,$^{\circ}$C,
Toluene,C$_{7}$H$_{8}$,,,-95,$^{\circ}$C,,,111,$^{\circ}$C,0.52
Crotylbarbital,C$_{10}$H$_{14}$N$_{2}$O$_{3}$,,,,,,,,,
Pulegone,C$_{10}$H$_{16}$O,,,,,0.9346,g/cm$^{3}$,224,$^{\circ}$C,Insoluble
Ammiol,C$_{14}$H$_{12}$O$_{6}$,276.24,g/mol,,,,,,,
Pamabrom,chemical_formula8-Bromotheophylline:C$_{7}$H$_{7}$BrN$_{4}$O$_{2}$; 2-Amino-2-methyl-1-propanol:C$_{4}$H$_{11}$NO,,,,,,,,,
Manganese(II) nitrate,Mn(NO$_{3}$)$_{2}$,178.95,g/mol,37,$^{\circ}$C,1.536,g/cm$^{3}$,100,$^{\circ}$C,high
Barium boride,BaB$_{6}$,202.193,g/mol,2270,$^{\circ}$C,4.36,g/cm$^{3}$,,,
Triisobutylaluminium,C$_{12}$H$_{27}$Al,,,4,$^{\circ}$C,,,86,$^{\circ}$C,
Cetylpyridinium chloride,C$_{21}$H$_{38}$NCl,,,77,$^{\circ}$C,,,,,
Potassium cobaltinitrite,K$_{3}$[Co(NO$_{2}$)$_{6}$](anhydrous),452.26,g/mol,,,2.6,g/cm$^{3}$,,,slightly soluble in water
Elotuzumab,C$_{6476}$H$_{9982}$N$_{1714}$O$_{2016}$S$_{42}$,,,,,,,,,
Itopride,C$_{20}$H$_{26}$N$_{2}$O$_{4}$,,,,,,,,,
Fuculose,C$_{6}$H$_{12}$O$_{5}$,164.16,g/mol,,,,,,,
Tylosin,C$_{46}$H$_{77}$NO$_{17}$,,,,,,,,,
Dihydrolipoic acid,C$_{8}$H$_{16}$O$_{2}$S$_{2}$,,,,,,,,,
Isopentenyl pyrophosphate,C$_{5}$H$_{12}$O$_{7}$P$_{2}$,,,,,,,,,
Bisacodyl,C$_{22}$H$_{19}$NO$_{4}$,,,,,,,,,
CP-39 332,,,,,,,,,,
Methiopropamine,C$_{8}$H$_{13}$NS,,,,,,,,,
Hydrocortamate,C$_{27}$H$_{41}$NO$_{6}$,,,,,,,,,
Aluminium hydride,AlH$_{3}$,29.99,g/mol,sublimes at 150,$^{\circ}$C,,,,,reacts
Trimethylsulfoxonium iodide,C$_{3}$H$_{9}$OSI,,,208-212,$^{\circ}$C,,,,,
Anoxomer,variable,,,,,,,,,
Aurotioprol,C$_{3}$H$_{6}$AuNaO$_{4}$S$_{2}$,,,,,,,,,
Julolidine,C$_{12}$H$_{15}$N,,,35,$^{\circ}$C,,,,,
Hexachlorophosphazene,N$_{3}$Cl$_{6}$P$_{3}$,347.66,g/mol,112-115,$^{\circ}$C,,,,,
Reboxetine,C$_{19}$H$_{23}$NO$_{3}$,,,,,,,,,
Acrylic acid,C$_{3}$H$_{4}$O$_{2}$,,,14,$^{\circ}$C,,,141,$^{\circ}$C,Miscible
Carthamin,C$_{43}$H$_{42}$O$_{22}$,910.78,g/mol,,,,,,,Slightly soluble
Dicalcium citrate,C$_{6}$H$_{6}$CaO$_{7}$,230.19,g/mol,,,,,,,
Y-320,C$_{27}$H$_{29}$ClN$_{6}$O$_{2}$,505.01116,g/mol,,,,,631.225,$^{\circ}$C,
Oxidopamine,C$_{8}$H$_{11}$NO$_{3}$,169.18,g/mol,,,,,,,
Anacetrapib,C$_{30}$H$_{25}$F$_{10}$NO$_{3}$,,,,,,,,,
AGN-2979,C$_{19}$H$_{28}$N$_{2}$O$_{3}$,,,,,,,,,
Deoxyuridine monophosphate,C$_{9}$H$_{13}$N$_{2}$O$_{8}$P,,,,,,,,,
Dimethylmagnesium,C$_{2}$H$_{6}$Mg,,,,,,,,,Reacts
Practolol,C$_{14}$H$_{22}$N$_{2}$O$_{3}$,,,,,,,,,
GR-113808,C$_{19}$H$_{27}$N$_{3}$O$_{4}$S,,,,,,,,,
Hexanoic acid,C$_{6}$H$_{12}$O$_{2}$,,,-3.4,$^{\circ}$C,0.929,g/cm$^{3}$,205.8,$^{\circ}$C,1.082
Cembrene A,C$_{20}$H$_{32}$,272.47,g/mol,,,,,150-152,$^{\circ}$C,
Ganirelix,C$_{80}$H$_{113}$ClN$_{18}$O$_{13}$,,,,,,,,,
BD-1047,C$_{13}$H$_{20}$Cl$_{2}$N$_{2}$,,,,,,,,,
Herbimycin,C$_{30}$H$_{42}$N$_{2}$O$_{9}$,574.66,g/mol,,,,,,,
Nebivolol,C$_{22}$H$_{25}$F$_{2}$NO$_{4}$,,,,,,,,,
Ketamine,C$_{13}$H$_{16}$ClNO,,,,,,,,,
Myristyl aldehyde,C$_{14}$H$_{28}$O,,,30,$^{\circ}$C,0.832,g/cm$^{3}$,,,0.0015
Triethyl orthoacetate,C$_{8}$H$_{18}$O$_{3}$,,,,,,,142,$^{\circ}$C,
Protoporphyrinogen IX,C$_{34}$H$_{52}$N$_{4}$O$_{4}$,580.801,g/mol,,,,,,,
Binospirone,C$_{20}$H$_{26}$N$_{2}$O$_{4}$,,,,,,,,,
Sinigrin,C$_{10}$H$_{16}$KNO$_{9}$S$_{2}$,397.46,g/mol,,,,,,,
Parthenolide,C$_{15}$H$_{20}$O$_{3}$,,,113,$^{\circ}$C,,,,,
Cetuximab,C$_{6484}$H$_{10042}$N$_{1732}$O$_{2023}$S$_{36}$,,,,,,,,,
Dichlofenthion,C$_{10}$H$_{13}$Cl$_{2}$O$_{3}$PS,315.16,g/mol,,,,,123,$^{\circ}$C,0.245
Tromantadine,C$_{16}$H$_{28}$N$_{2}$O$_{2}$,,,,,,,,,
Methylenedioxypropargylamphetamine,C$_{13}$H$_{15}$NO$_{2}$,217.264,g/mol,,,,,,,
Asperlicin,C$_{31}$H$_{29}$N$_{5}$O$_{4}$,,,,,,,,,
Talsupram,C$_{20}$H$_{25}$NS,,,,,,,,,
Carbazole,C$_{12}$H$_{9}$N,,,246.3,$^{\circ}$C,,,354.69,$^{\circ}$C,
Hexafluoroethane,C$_{2}$F$_{6}$,,,-100.6,$^{\circ}$C,,,-78.2,$^{\circ}$C,0.0015%
Petunidin-3-O-glucoside,C$_{22}$H$_{23}$O$^{+}_{12}$,,,,,,,,,
Lapaquistat,C$_{31}$H$_{39}$ClN$_{2}$O$_{8}$,,,,,,,,,
Maritimein,C$_{21}$H$_{20}$O$_{11}$,448.37,g/mol,,,,,,,
Lenthionine,C$_{2}$H$_{4}$S$_{5}$,188.38,g/mol,,,,,,,
Chromium(II) bromide,CrBr$_{2}$,291.71,g/mol,842,$^{\circ}$C,4.236,g/cm$^{3}$,,,"soluble, exothermal blue solution"
Octahydroxyanthraquinone,C$_{14}$H$_{8}$O$_{12}$,,,,,,,,,
Karanjin,C$_{18}$H$_{12}$O$_{4}$,292.29,g/mol,,,,,,,
Dihydromethysticin,C$_{15}$H$_{16}$O$_{5}$,276.28,g/mol,,,,,,,
Padimate A,C$_{14}$H$_{21}$NO$_{2}$,,,<25,$^{\circ}$C,,,,,
Phenyldichloroarsine,C$_{6}$H$_{5}$AsCl$_{2}$,222.9315,g/mol,-20,$^{\circ}$C,1.65,g/cm$^{3}$,252-255,$^{\circ}$C,Reacts
Curcuminoid,C$_{19}$H$_{16}$O$_{4}$,308.33,g/mol,222,$^{\circ}$C,,,,,
Samarium(III) chloride,SmCl$_{3}$,256.76,g/mol,682,$^{\circ}$C,4.46,g/cm$^{3}$,,,92.4
Clovoxamine,C$_{14}$H$_{21}$ClN$_{2}$O$_{2}$,,,,,,,,,
Pseudopelletierine,C$_{9}$H$_{15}$NO,,,54,$^{\circ}$C,,,,,
Arecatannin B1,C$_{45}$H$_{38}$O$_{18}$,866.77,g/mol,,,,,,,
Tricyclohexylphosphine,C$_{18}$H$_{33}$P,,,82,$^{\circ}$C,,,,,organic solvents
Pecilocin,C$_{17}$H$_{25}$NO$_{3}$,,,,,,,,,
Tannic acid,C$_{76}$H$_{52}$O$_{46}$,1701.19,g/mol,decomposes above 200,$^{\circ}$C,,,,,
Retinyl palmitate,C$_{36}$H$_{60}$O$_{2}$,524.86,g/mol,,,,,,,
Triphenylphosphine,C$_{18}$H$_{15}$P,,,80,$^{\circ}$C,,,377,$^{\circ}$C,Insoluble
Fluvastatin,C$_{24}$H$_{26}$FNO$_{4}$,,,,,,,,,
Piperocaine,C$_{16}$H$_{23}$NO$_{2}$,,,,,,,,,
Normethadone,C$_{20}$H$_{25}$NO,,,,,,,,,
Gestrinone,C$_{21}$H$_{24}$O$_{2}$,,,,,,,,,
Daigremontianin,C$_{26}$H$_{30}$O$_{9}$,,,,,,,695.2,$^{\circ}$C,
N-Ethyl-3-piperidyl benzilate,,,,,,,,,,
Methyl-MMDA-2,C$_{12}$H$_{17}$NO$_{3}$,,,,,,,,,
Aluminium fluoride,AlF$_{3}$,83.9767,g/mol,1291,$^{\circ}$C,3.1,g/cm$^{3}$,,,0.56
Pomarose,C$_{11}$H$_{18}$O,,,,,0.855,g/cm$^{3}$,236.2,$^{\circ}$C,
Carindacillin,C$_{26}$H$_{26}$N$_{2}$O$_{6}$S,,,,,,,,,
Proline,C$_{5}$H$_{9}$NO$_{2}$,,,205,$^{\circ}$C,,,,,
Borax,Na$_{2}$B$_{4}$O$_{7}$.10H$_{2}$O or Na$_{2}$[B$_{4}$O$_{5}$(OH)$_{4}$].8H$_{2}$O,,,743,$^{\circ}$C,1.73,g/cm$^{3}$,1575,$^{\circ}$C,
Spiperone,C$_{23}$H$_{26}$FN$_{3}$O$_{2}$,,,,,,,,,
Phenyl-D-galactopyranoside,C$_{12}$H$_{16}$O$_{6}$,256.252,g/mol,,,,,,,
Y-23684,C$_{18}$H$_{13}$ClN$_{2}$O$_{2}$S,,,,,,,,,
Degarelix,C$_{82}$H$_{103}$ClN$_{18}$O$_{16}$,,,,,,,,,
Tellurite (ion),O$_{3}$Te$^{2-}$,,,,,,,,,
SB-215505,C$_{19}$H$_{16}$ClN$_{3}$O,,,,,,,,,
Meptazinol,C$_{15}$H$_{23}$NO,,,,,,,,,
Perindopril,C$_{19}$H$_{32}$N$_{2}$O$_{5}$,,,,,,,,,
Rimiterol,C$_{12}$H$_{17}$NO$_{3}$,,,,,,,,,
Nile red,C$_{20}$H$_{18}$N$_{2}$O$_{2}$,318.369,g/mol,,,,,,,
Nonacosylic acid,C$_{29}$H$_{58}$O$_{2}$,438.44,g/mol,,,,,,,
Fexaramine,C$_{32}$H$_{36}$N$_{2}$O$_{3}$,,,,,,,,,
Diphosphorus,P$_{2}$,,,,,,,,,
Gluconic acid,C$_{6}$H$_{12}$O$_{7}$,196.16,g/mol,131,$^{\circ}$C,,,,,Good
Levocabastine,C$_{26}$H$_{29}$FN$_{2}$O$_{2}$,,,,,,,,,
Perillaldehyde,C$_{10}$H$_{14}$O,,,,,,,237,$^{\circ}$C,
Thiophosphoryl fluoride,PSF$_{3}$,120.035,g/mol,-148.8,$^{\circ}$C,,,-52.25,$^{\circ}$C,"slight, Highly reactive"
E-6837,C$_{22}$H$_{22}$ClN$_{3}$O$_{2}$S,427.95,g/mol,,,,,,,
Trapidil,C$_{10}$H$_{15}$N$_{5}$,,,,,,,,,
Phaclofen,C$_{9}$H$_{13}$ClNO$_{3}$P,249.631,g/mol,,,,,,,
Otamixaban,C$_{25}$H$_{26}$N$_{4}$O$_{4}$,,,,,,,,,
Actinidine,C$_{10}$H$_{13}$N,,,,,,,100-103,$^{\circ}$C,
Trisulfur,S$_{3}$,96.198,g/mol,,,,,,,
Ampyzine,C$_{17}$H$_{27}$NO$_{2}$,,,,,,,,,
Stachyose,C$_{24}$H$_{42}$O$_{21}$,666.578,g/mol,,,,,,,
Methacholine,C8H18NO2charge+,,,,,,,,,
Manzanate,C$_{8}$H$_{16}$O$_{2}$,144.21,g/mol,,,,,,,
Lasalocid,C$_{34}$H$_{54}$O$_{8}$,,,,,,,,,
Di-(2-ethylhexyl)phosphoric acid,C$_{16}$H$_{35}$O$_{4}$P,322.43,g/mol,-50,$^{\circ}$C,,,393,$^{\circ}$C,
Sodium ferulate,C$_{10}$H$_{9}$NaO$_{4}$,216.17,g/mol,,,,,,,
Methamphetamine,C$_{10}$H$_{15}$N,,,,,,,,,
Manganese(II) telluride,MnTe,182.54,g/mol,1150,$^{\circ}$C,6,g/cm$^{3}$,,,insoluble
Ethylene carbonate,C$_{3}$H$_{4}$O$_{3}$,,,34,$^{\circ}$C,1.3210,g/cm$^{3}$,260.7,$^{\circ}$C,Soluble
Inulin,C$_{6n}$H$_{10n+2}$O$_{5n+1}$,,,,,,,,,
Boron monoxide,B$_{2}$O,37.621,g/mol,,,,,,,
Piperylene,C$_{5}$H$_{8}$,68.117,g/mol,-87,$^{\circ}$C,0.683,g/cm$^{3}$,42,$^{\circ}$C,
Hydroxynaphthol blue,C$_{20}$H$_{11}$N$_{2}$Na$_{3}$O$_{11}$S$_{3}$,620.46301,g/mol,,,,,,,Souble
Cinchonine,C$_{19}$H$_{22}$N$_{2}$O,294.39,g/mol,,,,,,,
Pyrimidinylpiperazine,C$_{8}$H$_{12}$N$_{4}$,164.21,g/mol,,,,,,,
Ondansetron,C$_{18}$H$_{19}$N$_{3}$O,,,,,,,,,
Cebaracetam,C$_{16}$H$_{18}$ClN$_{3}$O$_{3}$,,,,,,,,,
Chromium(IV) fluoride,CrF$_{4}$,291.71,g/mol,277,$^{\circ}$C,2.89,g/cm$^{3}$,,,reacts with water
Borneol,C$_{10}$H$_{18}$O,,,208,$^{\circ}$C,1.011,g/cm$^{3}$,213,$^{\circ}$C,slightly soluble (D-form)
Punicalin,C$_{34}$H$_{22}$O$_{22}$,782.52,g/mol,,,,,,,
Pirlindole,C$_{15}$H$_{18}$N$_{2}$,,,,,,,,,
Desoxypipradrol,C$_{18}$H$_{21}$N,,,,,,,,,
Acenocoumarol,C$_{19}$H$_{15}$NO$_{6}$,,,,,,,,,
Saxagliptin,C$_{18}$H$_{25}$N$_{3}$O$_{2}$,,,,,,,,,
Ammonium arsenate,AsH$_{18}$O$_{7}$N$_{3}$,,,,,,,,,Soluble
Sodium diuranate,Na$_{2}$U$_{2}$O$_{7}$,,,,,6.44,g/cm$^{3}$,,,
Biphenylindanone A,,,,,,,,,,
Burimamide,C$_{9}$H$_{16}$N$_{4}$S,212.32,g/mol,,,,,,,
Fustin,C$_{15}$H$_{12}$O$_{6}$,288.25,g/mol,,,,,,,
Sodium adipate,Na$_{2}$C$_{6}$H$_{8}$O$_{4}$,190.10,g/mol,,,,,,,
Rubrocurcumin,C$_{23}$H$_{19}$BO$_{10}$,466.19,g/mol,,,,,,,
Loprazolam,C$_{23}$H$_{21}$ClN$_{6}$O$_{3}$,,,,,,,,,
Phenelzine,C$_{8}$H$_{12}$N$_{2}$,,,,,,,,,
PD 144418,,,,,,,,,,
Azobisisobutyronitrile,C$_{8}$H$_{12}$N$_{4}$,164.21,g/mol,103,$^{\circ}$C,,,,,
Sodium hexafluoroaluminate,Na$_{3}$AlF$_{6}$,209.94,g/mol,950,$^{\circ}$C,,,,,0.04% (20$^{\circ}$C)
Ethylhexyl triazone,C$_{48}$H$_{66}$N$_{6}$O$_{6}$,823.07,g/mol,,,,,,,
Azipramine,C$_{26}$H$_{26}$N$_{2}$,,,,,,,,,
Pyrrolidinylthiambutene,C$_{16}$H$_{19}$NS$_{2}$,,,167,$^{\circ}$C,,,,,
Dinitolmide,C$_{8}$H$_{7}$N$_{3}$O$_{5}$,225.16,g/mol,,,,,,,
Theogallin,C$_{14}$H$_{16}$O$_{10}$,344.27,g/mol,,,,,,,
Mandelic acid,C$_{8}$H$_{8}$O$_{3}$,,,119,$^{\circ}$C,1.30,g/cm$^{3}$,321.8,$^{\circ}$C,15.87
Neodymium aluminium borate,NdAl$_{3}$(BO$_{3}$)$_{4}$,460.42,g/mol,,,,,,,
Dixyrazine,C$_{24}$H$_{33}$N$_{3}$O$_{2}$S,,,,,,,,,
Metaboric acid,H$_{3}$B$_{3}$O$_{6}$,,,176,$^{\circ}$C,,,,,
SRT2183,C$_{27}$H$_{24}$N$_{4}$O$_{2}$S,,,,,,,,,
Dimefline,C$_{20}$H$_{21}$NO$_{3}$,,,,,,,,,
Benzestrol,C$_{20}$H$_{26}$O$_{2}$,,,164,$^{\circ}$C,,,431.369,$^{\circ}$C,
Glyoxylic acid,C$_{2}$H$_{2}$O$_{3}$,,,80,$^{\circ}$C,,,,,
Potassium hydrosulfide,HKS,72.171,g/mol,455,$^{\circ}$C,1.68-1.70,g/cm$^{3}$,,,good
Doliracetam,C$_{16}$H$_{14}$N$_{2}$O$_{2}$,,,,,,,,,
Bicine,C$_{6}$H$_{13}$NO$_{4}$,163.17,g/mol,,,,,,,
Sumanene,C$_{21}$H$_{12}$,,,,,,,,,
Polybutylene terephthalate,(C$_{12}$H$_{12}$O$_{4}$)$_{n}$,,,223,$^{\circ}$C,,,,,
L-371 257,,,,,,,,,,
Pleconaril,C$_{18}$H$_{18}$F$_{3}$N$_{3}$O$_{3}$,,,,,,,,,
Indinavir,C$_{36}$H$_{47}$N$_{5}$O$_{4}$,,,,,,,,,
Ascofuranone,C$_{23}$H$_{29}$ClO$_{5}$,,,,,,,581.2,$^{\circ}$C,
Zometapine,C$_{14}$H$_{15}$ClN$_{4}$,,,,,,,,,
Deoxyadenosine monophosphate,C$_{10}$H$_{14}$N$_{5}$O$_{6}$P,331.222,g/mol,,,,,,,
Tributyltin azide,C$_{12}$H$_{27}$N$_{3}$Sn,,,,,,,120,$^{\circ}$C,Reacts
Calcium malate,C$_{4}$H$_{4}$CaO$_{5}$,172.15,g/mol,,,,,,,soluble
Flutamide,C$_{11}$H$_{11}$F$_{3}$N$_{2}$O$_{3}$,,,,,,,,,
Diphenylmethanol,C$_{13}$H$_{12}$O,,,69,$^{\circ}$C,,,298,$^{\circ}$C,0.5
Flecainide,C$_{17}$H$_{20}$F$_{6}$N$_{2}$O$_{3}$,,,,,,,,,
Hydroxypethidine,C$_{15}$H$_{21}$NO$_{3}$,,,,,,,,,
Europetin,C$_{16}$H$_{12}$O$_{8}$,332.26,g/mol,,,,,,,
Beta-Alanine ethyl ester,C$_{5}$H$_{11}$NO$_{2}$,117.15,g/mol,65-67,$^{\circ}$C,,,58,$^{\circ}$C,
Diindenoperylene,C$_{32}$H$_{16}$,,,,,,,,,
Indatraline,C$_{16}$H$_{15}$Cl$_{2}$N,,,,,,,,,
Thiamine,C$_{12}$H$_{17}$N$_{4}$OS$^{+}$,,,,,,,,,
Aloglutamol,C$_{10}$H$_{24}$NO$_{12}$,,,,,,,,,
Lanthanum carbonate,La$_{2}$(CO$_{3}$)$_{3}$,457.838,g/mol,,,2.6-2.7,g/cm$^{3}$,,,negligible
Jacobsen's catalyst,C$_{36}$H$_{52}$ClMnN$_{2}$O$_{2}$,,,330-332,$^{\circ}$C,,,,,
Milbemycin oxime,,,,,,,,,,
Flocoumafen,C$_{33}$H$_{25}$F$_{3}$O$_{4}$,,,,,,,,,
Convallarin,C$_{34}$H$_{62}$O$_{11}$,646.496,g/mol,,,,,,,
Uranyl formate,(UO$_{2}$(CHO$_{2}$)$_{2}$.H$_{2}$O),,,110,$^{\circ}$C,,,,,
Exatecan,C$_{24}$H$_{22}$FN$_{3}$O$_{4}$,,,,,,,,,
Methyl butyrate,C$_{5}$H$_{10}$O$_{2}$,,,-95,$^{\circ}$C,0.898,g/cm$^{3}$,102,$^{\circ}$C,1.5
Procyanidin B1,C$_{30}$H$_{26}$O$_{12}$,578.52,g/mol,,,,,,,
Difemetorex,C$_{20}$H$_{25}$NO,,,,,,,,,
Hexamethylphosphoramide,C$_{6}$H$_{18}$N$_{3}$OP,179.20,g/mol,7.20,$^{\circ}$C,1.03,g/cm$^{3}$,232.5,$^{\circ}$C,miscible
Praseodymium(III) sulfate,Pr$_{2}$(SO$_{4}$)$_{3}$,570.0031,g/mol,1010,$^{\circ}$C,3.72,g/cm$^{3}$,,,113.0
Mapatumumab,C$_{6748}$H$_{10408}$N$_{1800}$O$_{2092}$S$_{52}$,,,,,,,,,
Selenomethionine,C$_{5}$H$_{11}$NO$_{2}$Se,196.106,g/mol,,,,,,,
HATU,C$_{10}$H$_{15}$F$_{6}$N$_{6}$OP,,,,,,,,,
Metampicillin,C$_{17}$H$_{19}$N$_{3}$O$_{4}$S,,,,,,,,,
Piroheptine,C$_{22}$H$_{25}$N,,,,,,,,,
Carburazepam,C$_{17}$H$_{16}$ClN$_{3}$O$_{2}$,,,,,,,,,
Pentacarbonylhydridorhenium,ReH(CO)$_{5}$,327.265,g/mol,12.5,$^{\circ}$C,,,100,$^{\circ}$C,Insoluble
Theograndin I,C$_{21}$H$_{18}$O$_{15}$S,542.42,g/mol,,,,,,,
Barium manganate,MnBaO$_{4}$,256.26,g/mol,,,4.85,g/cm$_{3}$,,,insoluble
Samarium(III) sulfide,Sm$_{2}$S$_{3}$,396.915,g/mol,1720,$^{\circ}$C,,,,,
Carbon dioxide,CO$_{2}$,,,,,,,,,1.45
Eriodictyol,C$_{15}$H$_{12}$O$_{6}$,288.25,g/mol,,,,,,,
Levallorphan,C$_{19}$H$_{25}$NO,,,,,,,,,
Trichlorofluoromethane,CCl$_{3}$F,,,-110.48,$^{\circ}$C,1.494,g/cm$^{3}$,23.77,$^{\circ}$C,1.1
Delucemine,C$_{16}$H$_{17}$F$_{2}$N,,,,,,,,,
Malvidin,C$_{17}$H$_{15}$O$_{7}$+,331.2968,g/mol,,,,,,,
Doxefazepam,C$_{17}$H$_{14}$ClFN$_{2}$O$_{3}$,,,,,,,,,
Vaska's complex,IrCl(CO)[P(C$_{6}$H$_{5}$)$_{3}$]$_{2}$.,780.25,g/mol,215,$^{\circ}$C,,,360,$^{\circ}$C,insol
JWH-098,C$_{26}$H$_{27}$NO$_{2}$,,,,,,,,,
Cyclothiazide,C$_{14}$H$_{16}$ClN$_{3}$O$_{4}$S$_{2}$,,,,,,,,,
Reclazepam,C$_{18}$H$_{13}$Cl$_{2}$N$_{3}$O$_{2}$,,,,,,,,,
Pristanic acid,C$_{19}$H$_{38}$O$_{2}$,,,,,,,,,
Colfosceril palmitate,,,,,,,,,,
Gulose,C$_{6}$H$_{12}$O$_{6}$,,,,,,,,,
Morclofone,C$_{21}$H$_{24}$ClNO$_{5}$,,,,,,,,,
Ailanthone,C$_{20}$H$_{24}$O$_{7}$,,,,,1.47,g/cm$^{3}$,,,
Uranyl sulfate,UO$_{2}$SO$_{4}$,366.09,g/mol,,,,,,,"27,5"
Glutaric acid,C$_{5}$H$_{8}$O$_{4}$,132.12,g/mol,95-98,$^{\circ}$C,,,200,$^{\circ}$C,
Vinylbital,C$_{11}$H$_{16}$N$_{2}$O$_{3}$,,,,,,,,,
Niobium monoxide,NbO,108.906,g/mol,1940,$^{\circ}$C,,,,,
Hydron (chemistry),H$^{+}$,,,,,,,,,
Manganese(II) molybdate,MnMoO$_{4}$,214.88,g/mol,1130,$^{\circ}$C,4.02,g/cm$^{3}$,,,insoluble
Licarbazepine,C$_{15}$H$_{14}$N$_{2}$O$_{2}$,,,,,,,,,
Norbuprenorphine,C$_{25}$H$_{35}$NO$_{4}$,,,,,,,,,
Formiminoglutamic acid,C$_{6}$H$_{10}$N$_{2}$O$_{4}$,174.155,g/mol,,,,,,,
Titanium diboride,TiB$_{2}$,69.489,g/mol,3230,$^{\circ}$C,4.52,g/cm$^{3}$,,,
Heme O,C$_{49}$H$_{58}$O$_{5}$N$_{4}$Fe,838.854,g/mol,,,,,,,
Triclopyr,C$_{7}$H$_{4}$Cl$_{3}$NO$_{3}$,,,148-150,$^{\circ}$C,,,,,440
Tazobactam,C$_{10}$H$_{12}$N$_{4}$O$_{5}$S,,,,,,,,,
Iobenguane,C$_{8}$H$_{10}$IN$_{3}$,,,,,,,,,
Eupatilin,C$_{18}$H$_{16}$O$_{7}$,,,,,,,,,
Cinnamaldehyde,C$_{9}$H$_{8}$O,132.16,g/mol,-7.5,$^{\circ}$C,,,248,$^{\circ}$C,Slightly Soluble
Potassium alum,KAl(SO$_{4}$)$_{2}$.12(H$_{2}$O),474.3884,g/mol,92-93,$^{\circ}$C,1.725,g/cm$^{3}$,200,$^{\circ}$C,14.00
Scandium(III) trifluoromethanesulfonate,C$_{3}$F$_{9}$O$_{9}$S$_{3}$Sc,492.16,g/mol,,,,,,,
Yttrium(III) arsenide,YAs,163.828,g/mol,,,5.59,g/cm$^{3}$,,,
Calcium stearate,C$_{36}$H$_{70}$CaO$_{4}$,,,155,$^{\circ}$C,1.08,g/cm$^{3}$,,,0.004
Propionitrile,C$_{3}$H$_{5}$N,,,,,,,,,11.9% (20$^{\circ}$C)
RTI-371,C$_{24}$H$_{25}$ClN$_{2}$O,,,,,,,,,
Thianthrene,C$_{12}$H$_{8}$S$_{2}$,,,151,$^{\circ}$C,,,364,$^{\circ}$C,
Octopamine,C$_{8}$H$_{11}$NO$_{2}$,,,,,,,,,
Balanophotannin D,C$_{28}$H$_{24}$O$_{16}$,616.48,g/mol,,,,,,,
Para-Bromoamphetamine,C$_{9}$H$_{12}$BrN,,,,,,,,,
Ergocryptine,C$_{32}$H$_{41}$N$_{5}$O$_{5}$,,,,,,,,,
Potassium erythorbate,C$_{6}$H$_{7}$KO$_{6}$,214.22,g/mol,,,,,,,
Sodium pertechnetate,NaTcO$_{4}$,169.89,g/mol,,,,,,,Soluble
Hexahydroxy-1 4-naphthalenedione,C$_{10}$H$_{6}$O$_{8}$,254.15,g/mol,,,,,,,
Sodium zincate,Na$_{2}$Zn(OH)$_{4}$,179.418,g/mol,,,,,,,