Name,formula,Property Molar Mass,Property Molar Mass units,Property Melting Point,Property Melting Point units,Property Density,Property Density units,Property Boiling Point,Property Boiling Point units,Property Solubility
Benzbromarone,C$_{17}$H$_{12}$Br$_{2}$O$_{3}$,,,161,$^{\circ}$C,,,,,
Arsole,C$_{4}$H$_{4}$AsH,,,,,,,,,
Isobromindione,C$_{15}$H$_{9}$BrO$_{2}$,,,,,,,,,
Barium chromate,BaCrO$_{4}$,253.37,g/mol,210,$^{\circ}$C,4.498,g/cm$^{3}$,,,0.2775
Deoxyuridine,C$_{9}$H$_{12}$N$_{2}$O$_{5}$,,,,,,,,,
Symbescaline,C$_{13}$H$_{21}$NO$_{3}$,239.311,g/mol,,,,,,,
IBMX,C$_{10}$H$_{14}$N$_{4}$O$_{2}$,222.3,g/mol,199-201,$^{\circ}$C,,,,,
N-Acetyltalosaminuronic acid,C$_{8}$H$_{13}$NO$_{7}$,235.19132,g/mol,,,,,,,
Nadroparin calcium,C$_{23}$H$_{30}$NO$_{3}$,,,,,,,,,
Incadronic acid,,,,,,,,,,
Tryptoline,C$_{11}$H$_{12}$N$_{2}$,172.226,g/mol,,,,,,,
Acetic acid,C$_{2}$H$_{4}$O$_{2}$,,,,,,,,,Miscible
Fentin acetate,C$_{20}$H$_{18}$O$_{2}$Sn,409.07,g/mol,,,,,,,
Rhodopin,C$_{40}$H$_{58}$O,,,,,0.912,g/cm$^{3}$,,,
Hydroxypyruvic acid,C$_{3}$H$_{4}$O$_{4}$,104.06,g/mol,,,,,,,
Methyl acetate,C$_{3}$H$_{6}$O$_{2}$,,,-98,$^{\circ}$C,,,56.9,$^{\circ}$C,~25% (20 $^{\circ}$C)
Rimcazole,C$_{21}$H$_{27}$N$_{3}$,,,,,,,,,
Nerolidol,C$_{15}$H$_{26}$O,222.37,g/mol,,,0.872,g/cm$^{3}$,122,$^{\circ}$C,
Acetoacetic acid,C$_{4}$H$_{6}$O$_{3}$,102.088,g/mol,36.5,$^{\circ}$C,,,,,miscible
Tetrahydropyran,C$_{5}$H$_{10}$O,86.13,g/mol,-45,$^{\circ}$C,0.880,g/cm$^{3}$,88,$^{\circ}$C,
Hexacyclonate,C$_{9}$H$_{16}$O$_{3}$,,,,,,,,,
Suramin,C$_{51}$H$_{40}$N$_{6}$O$_{23}$S$_{6}$,,,,,,,,,
Potassium persulfate,K$_{2}$S$_{2}$O$_{8}$,270.322,g/mol,,,2.477,g/cm$^{3}$,,,1.75
Teprotide,C$_{53}$H$_{76}$N$_{14}$O$_{12}$,,,,,,,,,
Rhein (molecule),C$_{15}$H$_{8}$O$_{6}$,284.22,g/mol,350-352,$^{\circ}$C,1.687,g/cm$^{3}$,597.8,$^{\circ}$C,Insoluble in water
Sodium chlorite,NaClO$_{2}$,90.442,g/mol,,,,,,,75.8
Lepidine,C$_{10}$H$_{9}$N,143.19,g/mol,9-10,$^{\circ}$C,,,261-263,$^{\circ}$C,
Tolnaftate,C$_{19}$H$_{17}$NOS,,,110,$^{\circ}$C,,,,,
Strontium bromate,SrBr$_{2}$O$_{6}$,343.424,g/mol,240,$^{\circ}$C,,,,,27.2
Anthanthrone,C$_{22}$H$_{10}$O$_{2}$,,,,,,,,,
Maribavir,Cl$_{5}$H$_{19}$Cl$_{2}$N$_{3}$O$_{4}$,,,,,,,,,
LY-503 430,,,,,,,,,,
Prenalterol,C$_{12}$H$_{19}$NO$_{3}$,,,,,,,,,
Infliximab,C$_{6428}$H$_{9912}$N$_{1694}$O$_{1987}$S$_{46}$,,,,,,,,,
Amiodarone,C$_{25}$H$_{29}$I$_{2}$NO$_{3}$,,,,,,,,,
Mosher's acid,C$_{10}$H$_{9}$F$_{3}$O$_{3}$,,,46-49,$^{\circ}$C,,,105-107,$^{\circ}$C,
Isopropyl palmitate,C$_{19}$H$_{38}$O$_{2}$,,,13.5,$^{\circ}$C,0.8525,g/cm$^{3}$,,,Insoluble
BRL-52537,C$_{18}$H$_{24}$Cl$_{2}$N$_{2}$O,,,,,,,,,
Gummadiol,C$_{20}$H$_{18}$O$_{8}$,386.35,g/mol,,,,,,,
Zatosetron,C$_{19}$H$_{25}$ClN$_{2}$O$_{2}$,,,,,,,,,
Hexafluorobenzene,C$_{6}$F$_{6}$,,,5.2,$^{\circ}$C,1.6120,g/cm$^{3}$,80.1,$^{\circ}$C,
Nolatrexed,C$_{14}$H$_{12}$N$_{4}$OS,284.34,g/mol,,,,,,,
Fast Yellow AB,C$_{12}$H$_{11}$N$_{3}$O$_{6}$S$_{2}$,,,,,,,,,
Dichlorine heptoxide,Cl$_{2}$O$_{7}$,182.901,g/mol,-91.57,$^{\circ}$C,,,82,$^{\circ}$C,
Potassium pyrosulfate,K$_{2}$O$_{7}$S$_{2}$,,,325,$^{\circ}$C,2.28,g/cm$^{3}$,,,soluble
Tyrothricin,C$_{65}$H$_{85}$N$_{11}$O$_{13}$,,,,,,,,,
Iloprost,C$_{22}$H$_{32}$O$_{4}$,,,,,,,,,
Tungsten disilicide,WSi$_{2}$,240.011,g/mol,2160,$^{\circ}$C,9.3,g/cm$^{3}$,,,insoluble
Bicyclopropenyl,C$_{6}$H$_{6}$,78.1,g/mol,,,,,,,
Dialifor,C$_{14}$H$_{17}$ClNO$_{4}$PS$_{2}$,393.85,g/mol,,,,,,,
Propallylonal,C$_{10}$H$_{13}$BrN$_{2}$O$_{3}$,,,,,,,,,
Indium(III) sulfide,In$_{2}$S$_{3}$,325.82,g/mol,1050.0,$^{\circ}$C,,,,,insoluble
Terpinene,C$_{10}$H$_{16}$,,,$\alpha$: 60-61,$^{\circ}$C,$\alpha$: 0.8375,g/cm$^{3}$,$\alpha$: 173.5-174.8,$^{\circ}$C,
Gemeprost,C$_{23}$H$_{38}$O$_{5}$,,,,,,,,,
Thymidine triphosphate,C$_{10}$H$_{17}$N$_{2}$O$_{14}$P$_{3}$,,,,,,,,,
Dimethyl methylphosphonate,C$_{3}$H$_{9}$O$_{3}$P,,,-50,$^{\circ}$C,,,181,$^{\circ}$C,slowly hydrolyses
AP26113,C$_{26}$H$_{34}$ClN$_{6}$O$_{2}$P,,,,,,,,,
Fenspiride,C$_{15}$H$_{20}$N$_{2}$O$_{2}$,,,,,,,,,
Brivanib alaninate,,,,,,,,,,
Hexachloroethane,C$_{2}$Cl$_{6}$,236.74,g/mol,183,$^{\circ}$C,,,,,0.005% (22.2$^{\circ}$C)
Diphenylsilanediol,C$_{12}$H$_{12}$O$_{2}$Si,216.308,g/mol,144-148,$^{\circ}$C,1.255,g/cm$^{3}$,,,
Technetium (99mTc) sestamibi,,,,,,,,,,
Amfepramone,C$_{13}$H$_{19}$NO,,,,,,,,,
AL-34662,C$_{10}$H$_{13}$N$_{3}$O,,,170,$^{\circ}$C,,,,,
Tubocurarine chloride,,,,,,,,,,
Penciclovir,C$_{10}$H$_{15}$N$_{5}$O$_{3}$,,,,,,,,,
Isosorbide,C$_{6}$H$_{10}$O$_{4}$,,,62.5,$^{\circ}$C,,,160,$^{\circ}$C,"in water (>850 g/L), alcohols and ketones"
Methylenetriphenylphosphorane,C$_{19}$H$_{17}$P,,,,,1.19,g/cm$^{3}$,,,decompose
Para-Nitrophenylphosphate,C$_{6}$H$_{6}$NO$_{6}$P,,,,,,,,,
Iclazepam,C$_{21}$H$_{21}$ClN$_{2}$O$_{2}$,,,,,,,,,
Sodium metatitanate,Na$_{2}$Ti$_{3}$O$_{7}$,301.62,g/mol,1128,$^{\circ}$C,,,,,insoluble
Afzelechin,C$_{15}$H$_{14}$O$_{5}$,274.26,g/mol,,,,,,,
Vanadium oxytrichloride,VOCl$_{3}$,,,-76.5,$^{\circ}$C,,,126.7,$^{\circ}$C,Decomposes
Propoxur,C$_{11}$H$_{15}$NO$_{3}$,,,,,,,,,0.2% (20$^{\circ}$C)
Phenylethylidenehydrazine,C$_{8}$H$_{10}$N$_{2}$,,,,,,,,,
Modafinil,C$_{15}$H$_{15}$NO$_{2}$S,,,,,,,,,
Sodium laureth sulfate,CH$_{3}$(CH$_{2}$)$_{11}$(OCH$_{2}$CH$_{2}$)$_{n}$OSO$_{3}$Na,around 420,g/mol,,,,,,,
Aluminium sulfate,Al$_{2}$(SO$_{4}$)$_{3}$,342.15,g/mol,770,$^{\circ}$C,2.672,g/cm$^{3}$,,,31.2
Org 12962,,,,,,,,,,
Metfendrazine,C$_{10}$H$_{16}$N$_{2}$,,,,,,,,,
Methandrostenolone,C$_{20}$H$_{28}$O$_{2}$,,,,,,,,,
CL-218 872,,,,,,,,,,
Oxazolam,C$_{18}$H$_{17}$ClN$_{2}$O$_{2}$,,,,,,,,,
Ethylene diurea,C$_{4}$H$_{10}$N$_{4}$O$_{2}$,,,192,$^{\circ}$C,,,,,
Guaiene,C$_{15}$H$_{24}$,,,,,,,$\alpha$: 281-282,$^{\circ}$C,
C-8813,C$_{20}$H$_{26}$BrNOS,,,,,,,,,
Uranium dioxide,UO$_{2}$,270.03,g/mol,2865,$^{\circ}$C,10.97,g/cm$^{3}$,,,insoluble
Digitonin,C$_{56}$H$_{92}$O$_{29}$,1229.3,g/mol,,,,,,,
Protriptyline,C$_{19}$H$_{21}$N,,,,,,,,,
F-2 (psychedelic),,,,,,,,,,
Astragalin,C$_{21}$H$_{20}$O$_{11}$,448.37,g/mol,,,,,,,
N-Propyl iodide,C$_{3}$H$_{7}$I,,,,,,,,,Miscible
Dicycloverine,C$_{19}$H$_{35}$NO$_{2}$,,,,,,,,,
NNC 38-1049,C$_{19}$H$_{25}$ClN$_{2}$O$_{2}$,348.866,g/mol,,,,,,,
Polyvinyl acetate,(C$_{4}$H$_{6}$O$_{2}$)$_{n}$,,,,,1.19,g/cm$^{3}$,112,$^{\circ}$C,
Setiptiline,C$_{19}$H$_{19}$N,,,,,,,,,
Tellurium trioxide,TeO$_{3}$,175.6,g/mol,430,$^{\circ}$C,,,,,
Tetracobalt dodecacarbonyl,Co$_{4}$(CO)$_{12}$,571.858,g/mol,decomposes at 60,$^{\circ}$C,2.09,g/cm$^{3}$,,,
Tetrahydroxy-1 4-benzoquinone,C$_{6}$H$_{4}$O$_{6}$,,,,,,,370.6,$^{\circ}$C,Slightly soluble in cold water
Methylketobemidone,C$_{14}$H$_{19}$NO$_{2}$,,,,,,,,,
Sulfamide,H$_{4}$N$_{2}$O$_{2}$S,96.11,g/mol,93,$^{\circ}$C,,,250,$^{\circ}$C,Freely soluble
Lauric acid,C$_{12}$H$_{24}$O$_{2}$,,,43.8,$^{\circ}$C,1.007,g/cm$^{3}$,297.9,$^{\circ}$C,37
Ethyl chloroformate,C$_{3}$H$_{5}$ClO$_{2}$,108.52,g/mol,,,1.1403,g/cm$^{3}$,95,$^{\circ}$C,Decomposes
Bifonazole,C$_{22}$H$_{18}$N$_{2}$,,,,,,,,,
Caesium nitrate,CsNO$_{3}$,194.91,g/mol,414,$^{\circ}$C,3.685,g/cm$^{3}$,,,9.16
Calphostin C,C$_{44}$H$_{38}$O$_{14}$,,,,,,,,,
HZ-2,C$_{23}$H$_{26}$N$_{4}$O$_{5}$,,,,,,,,,
ITI-007,C$_{24}$H$_{28}$FN$_{3}$O,,,,,,,,,
Fotemustine,C$_{9}$H$_{19}$ClN$_{3}$O$_{5}$P,,,,,,,,,
Diborane,H$_{6}$B$_{2}$,,,-164.85,$^{\circ}$C,,,-92.5,$^{\circ}$C,Reacts
Etoxadrol,C$_{16}$H$_{23}$NO$_{2}$,,,,,,,,,
Rapastinel,C$_{18}$H$_{31}$N$_{5}$O$_{6}$,,,,,,,,,
Antazoline,C$_{17}$H$_{19}$N$_{3}$,,,,,,,,,
Methyltrimethoxysilane,C$_{4}$H$_{12}$O$_{3}$Si,,,,,0.955,g/cm$^{3}$,102-104,$^{\circ}$C,hydrolysis
Damnacanthal,C$_{16}$H$_{10}$O$_{5}$,,,,,,,532,$^{\circ}$C,
Pachyphyllone,C$_{20}$H$_{28}$O$_{3}$,316.43,g/mol,,,,,,,
Halazepam,C$_{17}$H$_{12}$ClF$_{3}$N$_{2}$O,,,,,,,,,
Creatinine,C$_{4}$H$_{7}$N$_{3}$O,,,300,$^{\circ}$C,,,,,
Pimobendan,C$_{19}$H$_{18}$N$_{4}$O$_{2}$,,,,,,,,,
Ortataxel,C$_{44}$H$_{57}$NO$_{17}$,,,,,,,,,
Tris(dimethylamino)aluminium dimer,C$_{12}$H$_{36}$Al$_{2}$N$_{6}$,,,,,,,,,
Methylprednisolone aceponate,,,,,,,,,,
Luteic acid,C$_{14}$H$_{8}$O$_{9}$,320.21,g/mol,,,,,,,
Magnesium pidolate,,,,,,,,,,
Tadocizumab,C$_{2107}$H$_{3252}$N$_{562}$O$_{673}$S$_{12}$,,,,,,,,,
Cupferron,C$_{6}$H$_{9}$N$_{3}$O$_{2}$,155.15,g/mol,150-155,$^{\circ}$C,,,,,soluble
Ditazole,C$_{19}$H$_{20}$N$_{2}$O$_{3}$,,,,,,,,,
Arsenic pentachloride,AsCl$_{5}$,252.1866,g/mol,,,,,,,
Coeloginanthrin,C$_{16}$H$_{14}$O$_{5}$,286.28,g/mol,,,,,,,
Festinavir,C$_{12}$H$_{12}$N$_{2}$O$_{4}$,,,,,,,,,
Orlistat,C$_{29}$H$_{53}$NO$_{5}$,,,,,,,,,
Nickel chromate,NiCrO$_{4}$,174.71,g/mol,,,,,,,insoluble in water
SCH-50911,C$_{8}$H$_{15}$NO$_{3}$,,,154.5-157,$^{\circ}$C,,,,,
Deoxyadenosine,C$_{10}$H$_{13}$N$_{5}$O$_{3}$,,,,,,,,,
Propiram,C$_{16}$H$_{25}$N$_{3}$O,,,,,,,,,
Octadecylphosphonic acid,C$_{18}$H$_{39}$O$_{3}$P,,,,,,,,,
Curium(III) oxide,Cm$_{2}$O$_{3}$,,,,,,,,,
Amylose,variable,,,,,,,,,
Sucrononic acid,C$_{19}$H$_{26}$N$_{4}$O$_{2}$,342.44,g/mol,,,,,,,
Silver bromide,AgBr,187.77,g/mol,432,$^{\circ}$C,,,1502,$^{\circ}$C,0.140
Pivalic acid,C$_{5}$H$_{10}$O$_{2}$,102.132,g/mol,35,$^{\circ}$C,0.905,g/cm$^{3}$,163.7,$^{\circ}$C,
Strontium sulfide,SrS,119.68,g/mol,2002,$^{\circ}$C,3.70,g/cm$^{3}$,,,
Premarin,C$_{18}$H$_{20}$O$_{2}$,,,,,,,,,
Zonisamide,C$_{8}$H$_{8}$N$_{2}$O$_{3}$S,,,,,,,,,
Hypromellose,variable,,,,,,,,,
Insulin glulisine,,,,,,,,,,
RB-101,C$_{31}$H$_{38}$N$_{2}$O$_{3}$S$_{3}$,,,,,,,,,
Cromakalim,C$_{16}$H$_{18}$N$_{2}$O$_{3}$,,,,,,,,,
Levomoramide,C$_{25}$H$_{32}$N$_{2}$O$_{2}$,,,,,,,,,
Carvacrol,C$_{10}$H$_{14}$O,150.217,g/mol,1,$^{\circ}$C,,,237.7,$^{\circ}$C,insoluble
Elfazepam,C$_{19}$H$_{18}$ClFN$_{2}$O$_{3}$S,,,,,,,,,
Glicaramide,C$_{30}$H$_{42}$N$_{6}$O$_{5}$S,,,,,,,,,
P-Phenylenediamine,C$_{6}$H$_{8}$N$_{2}$,,,,,,,,,
Fludroxycortide,C$_{24}$H$_{33}$FO$_{6}$,,,,,,,,,
Pranoprofen,C$_{15}$H$_{13}$NO$_{3}$,,,,,,,,,
Sumatriptan,C$_{14}$H$_{21}$N$_{3}$O$_{2}$S,,,,,,,,,
Aspergillic acid,C$_{12}$H$_{20}$N$_{2}$O$_{2}$,,,98,$^{\circ}$C,1.163,g/cm$^{3}$,,,
Hydralazine,C$_{8}$H$_{8}$N$_{4}$,,,,,,,,,
Diiodohydroxyquinoline,C$_{9}$H$_{5}$I$_{2}$NO,,,,,,,,,
Pristinamycin IIA,,,,,,,,,,
Hydracarbazine,C$_{5}$H$_{7}$N$_{5}$O,,,,,,,,,
Isobutylamine,C$_{4}$H$_{11}$N,,,,,,,,,Miscible
Lichenin,(C$_{6}$H$_{10}$O$_{5}$)$_{x}$,,,,,,,,,
Potassium formate,CHKO$_{2}$,,,167.5,$^{\circ}$C,1.908,g/cm$^{3}$,,,32.8
JWH-018,C$_{24}$H$_{23}$NO,,,,,,,,,hydrophobic
Chartreusin,C$_{32}$H$_{32}$O$_{14}$,,,,,,,,,
Iron(III) phosphate,FePO$_{4}$,,,250,$^{\circ}$C,3.056,g/cm$^{3}$,,,anhydrous:
Rhoifolin,C$_{27}$H$_{30}$O$_{14}$,578.52,g/mol,,,,,,,
Levopimaric acid,C$_{20}$H$_{30}$O$_{2}$,,,150,$^{\circ}$C,,,,,Practically insoluble in water
SoRI-9409,C$_{29}$H$_{27}$ClN$_{2}$O$_{3}$,,,,,,,,,
Tegaserod,C$_{16}$H$_{23}$N$_{5}$O,,,,,,,,,
SKF-89 145,,,,,,,,,,
Beryllium carbonate,BeCO$_{3}$,,,54,$^{\circ}$C,,,100,$^{\circ}$C,0.36
Cetrimonium bromide,C$_{19}$H$_{42}$BrN,364.45,g/mol,237-243,$^{\circ}$C,,,,,
Monoxerutin,C$_{29}$H$_{34}$O$_{17}$,,,,,,,,,
Threose,C$_{4}$H$_{8}$O$_{4}$,,,,,,,,,Very soluble
Crotonaldehyde,C$_{4}$H$_{6}$O,,,-76.5,$^{\circ}$C,0.846,g/cm$^{3}$,104.0,$^{\circ}$C,18% (20$^{\circ}$C)
Chlornaltrexamine,C$_{24}$H$_{32}$Cl$_{2}$N$_{2}$O$_{3}$,467.43,g/mol,,,,,,,
Uranium triiodide,UI$_{3}$,618.74232,g/mol,766,$^{\circ}$C,6.78,g/cm$^{3}$,,,
Potassium fulminate,CKNO,,,,,1.8,g/cm$^{3}$,,,
Fructone,C$_{8}$H$_{14}$O$_{4}$,,,,,,,,,1.893
Serinolamide A,,,,,,,,,,
Norpropoxyphene,C$_{34}$H$_{65}$N$_{3}$O$_{5}$S,,,,,,,,,
Methacrylyl-CoA,C$_{25}$H$_{40}$N$_{7}$O$_{17}$P$_{3}$S,835.61,g/mol,,,,,,,
Dimazole,C$_{15}$H$_{23}$N$_{3}$OS,,,195,$^{\circ}$C,,,,,
Mesquitol,C$_{15}$H$_{14}$O$_{6}$,290.26,g/mol,,,,,,,
Pyrethrin II,C$_{22}$H$_{28}$O$_{5}$,,,,,,,,,
Furazolidone,C$_{8}$H$_{7}$N$_{3}$O$_{5}$,,,,,,,,,
Avibactam,chemical_formulaC$_{7}$H$_{11}$N$_{3}$O$_{6}$S,,,,,,,,,
Uranium tetraiodide,UI$_{4}$,745.647,g/mol,,,,,,,
JQ1,C$_{23}$H$_{25}$ClN$_{4}$O$_{2}$S,,,,,,,,,
Loracarbef,C$_{16}$H$_{16}$ClN$_{3}$O$_{4}$,,,,,,,,,
Butyl iodide,C$_{4}$H$_{9}$I,,,,,,,,,
GV (nerve agent),C$_{6}$H$_{16}$FN$_{2}$O$_{2}$P,198.176,g/mol,,,,,,,
Solanocapsine,C$_{27}$H$_{46}$N$_{2}$O$_{2}$,,,222,$^{\circ}$C,,,,,
Methyl methacrylate,C$_{5}$H$_{8}$O$_{2}$,,,-48,$^{\circ}$C,0.94,g/cm$^{3}$,101,$^{\circ}$C,1.5
Poly(ethylene succinate),(C$_{6}$H$_{8}$O$_{4}$)$_{n}$,,,103-106,$^{\circ}$C,,,,,
Fentanyl,C$_{22}$H$_{28}$N$_{2}$O,,,,,,,,,
Tolpropamine,C$_{18}$H$_{23}$N,,,,,,,,,
Glutaraldehyde,C$_{5}$H$_{8}$O$_{2}$,,,-14,$^{\circ}$C,,,187,$^{\circ}$C,"Miscible, reacts"
O-774,C$_{25}$H$_{35}$NO$_{2}$,,,,,,,,,
Zirconocene dichloride,C$_{10}$H$_{10}$ZrCl$_{2}$,,,,,,,,,Soluble (Hydrolysis)
Polidocanol,C$_{30}$H$_{62}$O$_{10}$,,,,,,,,,
Endomorphin-1,C$_{34}$H$_{38}$N$_{6}$O$_{5}$,610.703,g/mol,,,,,,,
MDMAT,C$_{12}$H$_{15}$NO$_{2}$,,,,,,,,,
Rentiapril,C$_{13}$H$_{15}$NO$_{4}$S$_{2}$,,,,,,,,,
Methyl isobutyl ketone,C$_{6}$H$_{12}$O,100.16,g/mol,-84.7,$^{\circ}$C,,,117,$^{\circ}$C,1.91
Roxibolone,C$_{21}$H$_{28}$O$_{5}$,360.44,g/mol,,,,,,,
Holmium(III) oxide,Ho$_{2}$O$_{3}$,,,2415,$^{\circ}$C,,,3900,$^{\circ}$C,
Isoquinoline,C$_{9}$H$_{7}$N,,,26,$^{\circ}$C,1.099,g/cm$^{3}$,242,$^{\circ}$C,
Cloricromen,C$_{20}$H$_{26}$ClNO$_{5}$,,,,,,,,,
Prothionamide,C$_{9}$H$_{12}$N$_{2}$S,,,,,,,,,
Rhodotorulic acid,C$_{14}$H$_{24}$N$_{4}$O$_{6}$,344.36,g/mol,,,,,,,0.96
Iodine pentafluoride,IF$_{5}$,221.89,g/mol,9.43,$^{\circ}$C,3.250,g/cm$^{3}$,97.85,$^{\circ}$C,Reacts
GRN-529,C$_{22}$H$_{15}$F$_{2}$N$_{3}$O$_{2}$,,,,,,,,,
Mecillinam,C$_{15}$H$_{23}$N$_{3}$O$_{3}$S,,,,,,,,,
Xenon dichloride,XeCl$_{2}$,202.199,g/mol,,,,,,,
Knolker complex,C$_{17}$H$_{28}$FeO$_{3}$Si$_{2}$,,,,,,,,,polar organic solvents
Ioxilan,C$_{18}$H$_{24}$I$_{3}$N$_{3}$O$_{8}$,,,,,,,,,
Tiaprofenic acid,,,,,,,,,,
Carbon monosulfide,CS,,,,,,,,,insoluble
Carmofur,C$_{11}$H$_{16}$FN$_{3}$O$_{3}$,,,,,,,,,
Arabinose,C$_{5}$H$_{10}$O$_{5}$,150.13,g/mol,164,$^{\circ}$C,1.585,g/cm$^{3}$,,,Soluble
Carene,C$_{10}$H$_{16}$,136.24,g/mol,,,0.867,g/cm$^{3}$,168-169,$^{\circ}$C,
Iron(III) acetate,C$_{14}$H$_{27}$Fe$_{3}$O$_{18}$,650.9,g/mol,,,,,,,
Vetivazulene,C$_{15}$H$_{18}$,198.31,g/mol,32-33,$^{\circ}$C,,,,,
Proxorphan,C$_{19}$H$_{25}$NO$_{2}$,,,,,,,,,
Gold(III) chloride,AuCl$_{3}$,303.325,g/mol,254,$^{\circ}$C,4.7,g/cm$^{3}$,,,68
JWH-175,C$_{24}$H$_{25}$N,,,,,,,,,
Danielone,C$_{10}$H$_{12}$O$_{5}$,212.19,g/mol,,,,,,,
Polyfluorene,(C$_{13}$H$_{8}$)$_{n}$,,,,,,,,,
Iopydol,C$_{8}$H$_{9}$I$_{2}$NO$_{3}$,,,,,,,,,
Californidine,C$_{21}$H$_{22}$NO$^{+}_{3}$,336.400,g/mol,,,,,,,
Paclobutrazol,C$_{15}$H$_{20}$ClN$_{3}$O,,,,,,,460.9,$^{\circ}$C,26
Sesamol,C$_{7}$H$_{6}$O$_{3}$,138.12,g/mol,62-65,$^{\circ}$C,,,121-127,$^{\circ}$C,
Sodium pyrosulfate,Na$_{2}$S$_{2}$O$_{7}$,222.12,g/mol,400.9,$^{\circ}$C,2.658,g/cm$^{3}$,,,Soluble
Cellobiose,C$_{12}$H$_{22}$O,,,203.5,$^{\circ}$C,,,,,12
Emtricitabine,C$_{8}$H$_{10}$FN$_{3}$O$_{3}$S,,,,,,,,,
Cysteine sulfinic acid,C$_{3}$H$_{7}$NO$_{4}$S,,,,,,,,,
Meropenem,C$_{17}$H$_{25}$N$_{3}$O$_{5}$S,,,,,,,,,
Lawesson's reagent,C$_{14}$H$_{14}$O$_{2}$P$_{2}$S$_{4}$,,,228-231,$^{\circ}$C,,,,,Insoluble
Triacetin,C$_{9}$H$_{14}$O$_{6}$,,,-78,$^{\circ}$C,1.155,g/cm$^{3}$,259,$^{\circ}$C,6.1
LY-293284,C$_{19}$H$_{26}$N$_{2}$O,,,,,,,,,
Mofebutazone,C$_{13}$H$_{16}$N$_{2}$O$_{2}$,,,,,,,,,
Tetracene,C$_{18}$H$_{12}$,228.29,g/mol,357,$^{\circ}$C,,,,,Insoluble
Lennoxamine,C$_{20}$H$_{19}$NO$_{5}$,,,,,,,,,
Potassium propanoate,C$_{3}$H$_{5}$KO$_{2}$,112.1689,g/mol,>300,$^{\circ}$C,,,,,soluble
Pukateine,C$_{18}$H$_{17}$NO$_{3}$,,,,,,,,,
Niobium(V) bromide,NbBr$_{5}$,492.430,g/mol,254,$^{\circ}$C,4.36,g/cm$^{3}$,364,$^{\circ}$C,soluble
Piberaline,C$_{17}$H$_{19}$N$_{3}$O,,,,,,,,,
Lauryl glucoside,C$_{18}$H$_{36}$O$_{6}$,348.48,g/mol,,,,,,,
Calcium carbide,CaC$_{2}$,64.099,g/mol,2160,$^{\circ}$C,2.22,g/cm$^{3}$,2300,$^{\circ}$C,decomposes
Phloretin,C$_{15}$H$_{14}$O$_{5}$,274.26,g/mol,,,,,,,
Stigmasterol,C$_{29}$H$_{48}$O,,,160,$^{\circ}$C,,,,,Insoluble
Fospropofol,C$_{13}$H$_{19}$Na$_{2}$O$_{5}$P,,,,,,,,,
Methylthioirontricarbonyl dimer,C$_{8}$H$_{6}$Fe$_{2}$O$_{6}$S$_{2}$,373.94,g/mol,65,$^{\circ}$C,,,,,
Hematoporphyrin,C$_{34}$H$_{38}$N$_{4}$O$_{6}$,,,,,,,,,
HU-243,C$_{25}$H$_{40}$O$_{3}$,,,,,,,,,
Pirbuterol,C$_{12}$H$_{20}$N$_{2}$O$_{3}$,,,,,,,,,
Lomitapide,C$_{39}$H$_{37}$F$_{6}$N$_{3}$O$_{2}$,,,,,,,,,
Diethyl chlorophosphate,C$_{4}$H$_{10}$ClO$_{3}$P,172.54,g/mol,,,,,,,
EME (psychedelic),C$_{14}$H$_{23}$NO$_{3}$,253.341,g/mol,,,,,,,
Cerium(IV) oxide,CeO$_{2}$,172.115,g/mol,2400,$^{\circ}$C,7.215,g/cm$^{3}$,3500,$^{\circ}$C,insoluble
Azocane,C$_{7}$H$_{15}$N,,,,,,,51-53,$^{\circ}$C,
Grapefruit mercaptan,C$_{10}$H$_{18}$S,170.31,g/mol,25,$^{\circ}$C,1.03,g/cm$^{3}$,58,$^{\circ}$C,
Dimethyllysergamide,C$_{18}$H$_{21}$N$_{3}$O,,,,,,,,,
Medroxyprogesterone acetate,,,,,,,,,,
Demeton-S-methyl,C$_{6}$H$_{15}$O$_{3}$PS$_{2}$,230.28,g/mol,,,1.2,g/cm$^{3}$,118,$^{\circ}$C,0.33
Barium titanate,BaTiO$_{3}$,,,1625,$^{\circ}$C,,,,,insoluble
Muramyl dipeptide,C$_{19}$H$_{32}$N$_{4}$O$_{11}$,,,,,,,,,
Ethylenediamine,C$_{2}$H$_{8}$N$_{2}$,,,8,$^{\circ}$C,0.90,g/cm$^{3}$,116,$^{\circ}$C,miscible
DMPU,C$_{6}$H$_{12}$N$_{2}$O,,,,,1.064,g/cm$^{3}$,246,$^{\circ}$C,miscible
Methyl 2-chloroacrylate,C$_{4}$H$_{5}$ClO$_{2}$,120.53,g/mol,,,,,,,Insoluble in water
Androstadienone,C$_{19}$H$_{26}$O,,,,,,,,,
Fenclozic acid,,,,,,,,,,
Bethanidine,C$_{10}$H$_{15}$N$_{3}$,,,,,,,,,
Ambazone,C$_{8}$H$_{11}$N$_{7}$S,237.28,g/mol,,,,,,,0.2
Sodium metaborate,NaBO$_{2}$,65.80,g/mol,966,$^{\circ}$C,2.46,g/cm$^{3}$,1434,$^{\circ}$C,16.4
Methylaluminoxane,(Al(CH$_{3}$)$_{x}$O$_{y}$)$_{n}$,,,,,,,,,
NS-2359,C$_{15}$H$_{19}$Cl$_{2}$NO,,,,,,,,,
Gonane,C$_{17}$H$_{28}$,,,,,,,,,
Pargyline,C$_{11}$H$_{13}$N,,,,,,,,,
Pigment Yellow 16,C$_{34}$H$_{28}$Cl$_{4}$N$_{6}$O$_{4}$,,,,,,,,,
Chlorpromazine,C$_{17}$H$_{19}$ClN$_{2}$S,,,,,,,,,
R-30490,C$_{24}$H$_{32}$N$_{2}$O$_{2}$,,,,,,,,,
Climazolam,C$_{18}$H$_{13}$Cl$_{2}$N$_{3}$,,,,,,,,,
Hydroxylammonium sulfate,H$_{8}$N$_{2}$O$_{6}$S,164.14,g/mol,120,$^{\circ}$C,1.88,g/cm$^{3}$,,,58.7
Neratinib,C$_{30}$H$_{29}$ClN$_{6}$O$_{3}$,,,,,,,,,
Mariptiline,C$_{18}$H$_{18}$N$_{2}$O,,,,,,,,,
Tricalcium phosphate,Ca$_{3}$O$_{8}$P$_{2}$,,,,,3.14,g/cm$^{3}$,,,
Neostigmine,C$_{12}$H$_{19}$N$_{2}$O$_{2}$,,,,,,,,,
Beryllium nitrate,Be(NO$_{3}$)$_{2}$,133.021982,g/mol,60.5,$^{\circ}$C,1.56,g/cm$^{3}$,142,$^{\circ}$C,166
Obovatol,C$_{18}$H$_{18}$O$_{3}$,,,,,,,,,
Strontium sulfate,SrSO$_{4}$,183.68,g/mol,1606,$^{\circ}$C,3.96,g/cm$^{3}$,,,0.0135
Abiraterone,C$_{24}$H$_{31}$NO,,,,,,,,,
Lactisole,C$_{10}$H$_{11}$O$_{4}$Na,218.188,g/mol,190,$^{\circ}$C,,,,,"Soluble in water and propylene glycol, slightly soluble in fat and miscible at room temperature in ethanol"
Caplacizumab,C$_{1213}$H$_{1891}$N$_{357}$O$_{380}$S$_{10}$,,,,,,,,,
Thioacetone,C$_{3}$H$_{6}$S,,,-40,$^{\circ}$C,,,80-90,$^{\circ}$C,
Exo-Norborneol,C$_{7}$H$_{12}$O,,,124-126,$^{\circ}$C,,,176-177,$^{\circ}$C,
Mannosamine,C$_{6}$H$_{13}$NO$_{5}$,179.171,g/mol,,,,,,,
Pridinol,C$_{20}$H$_{25}$NO,,,,,,,,,
Camphorsultam,C$_{10}$H$_{17}$NO$_{2}$S,,,181-183,$^{\circ}$C,1.287,g/cm$^{3}$,325,$^{\circ}$C,
Efavirenz,C$_{14}$H$_{9}$ClF$_{3}$NO$_{2}$,,,,,,,,,
Bismuthine,BiH$_{3}$,212.00,g/mol,,,,,16.8,$^{\circ}$C,
Isometamidium chloride,,,,,,,,,,
Uranium pentaiodide,UI$_{5}$,872.551,g/mol,,,,,,,
O-4310,C$_{15}$H$_{21}$FN$_{2}$O,,,,,,,,,
Arsenic triselenide,As$_{2}$Se$_{3}$,386.72,g/mol,360,$^{\circ}$C,4.75,g/cm$^{3}$,,,insoluble
Little gastrin I,C$_{97}$H$_{124}$N$_{20}$O$_{31}$S,2098.20,g/mol,,,,,,,
Xanthene,C$_{13}$H$_{10}$O,,,101,$^{\circ}$C,,,310,$^{\circ}$C,
Mepirodipine,C$_{27}$H$_{29}$N$_{3}$O$_{6}$,,,,,,,,,
Rubidium fluoride,RbF,104.4662,g/mol,795,$^{\circ}$C,3.557,g/cm$^{3}$,1408,$^{\circ}$C,130.6
Azoxystrobin,C$_{22}$H$_{17}$N$_{3}$O$_{5}$,,,,,,,,,
Chlorotrifluorosilane,SiClF$_{3}$,,,-138,$^{\circ}$C,,,,,reacts
Pleuromutilin,C$_{22}$H$_{34}$O$_{5}$,378.509,g/mol,,,,,,,
Vilazodone,C$_{26}$H$_{27}$N$_{5}$O$_{2}$,,,,,,,,,
Diphemanil metilsulfate,,,,,,,,,,
Alpha-Hexachlorocyclohexane,C$_{6}$H$_{6}$Cl$_{6}$,290.83,g/mol,,,,,,,
Monofluorophosphate,PO$_{3}$F$^{2-}$,97.971,g/mol,,,,,,,
Bromadoline,C$_{15}$H$_{21}$BrN$_{2}$O,,,,,,,,,