Name,formula,Property Molar Mass,Property Molar Mass units,Property Melting Point,Property Melting Point units,Property Density,Property Density units,Property Boiling Point,Property Boiling Point units,Property Solubility
Ethylene-vinyl acetate,(C$_{2}$H$_{4}$)$_{n}$(C$_{4}$H$_{6}$O$_{2}$)$_{m}$,,,,,,,,,
Arimoclomol,C$_{14}$H$_{20}$ClN$_{3}$O$_{3}$,,,,,,,,,
Zoledronic acid,,,,,,,,,,
Copper(II) arsenate,Cu$_{3}$(AsO$_{4}$)$_{2}$,468.48,g/mol,1100,$^{\circ}$C,5.2,g/cm$^{3}$,,,insoluble
Magnus' green salt,H$_{12}$Cl$_{4}$N$_{4}$Pt$_{2}$,600.09,g/mol,320,$^{\circ}$C,,,,,
Variecolin,C$_{25}$H$_{36}$O$_{2}$,,,,,,,,,
Dihydrolipoamide,C$_{8}$H$_{17}$NOS$_{2}$,207.359,g/mol,,,,,,,
Hexetidine,C$_{21}$H$_{45}$N$_{3}$,,,,,,,,,
Niobium(V) chloride,NbCl$_{5}$,270.17,g/mol,204.7,$^{\circ}$C,2.75,g/cm$^{3}$,248.2,$^{\circ}$C,decomposes
Enalapril,C$_{20}$H$_{28}$N$_{2}$O$_{5}$,,,,,,,,,
Isavuconazole,C$_{22}$H$_{17}$F$_{2}$N$_{5}$OS,,,,,,,,,
Oryzalin,C$_{12}$H$_{18}$N$_{4}$O$_{6}$S,,,,,,,,,
Taniplon,C$_{14}$H$_{15}$N$_{5}$O$_{2}$,,,,,,,,,
Yttrium(III) sulfide,Y$_{2}$S$_{3}$,274.010,g/mol,1925,$^{\circ}$C,3.87,g/cm$^{3}$,,,
A-68930,C$_{16}$H$_{17}$NO$_{3}$,,,,,,,,,
Phenformin,C$_{10}$H$_{15}$N$_{5}$,,,,,,,,,
Aviptadil,C$_{147}$H$_{237}$N$_{43}$O$_{43}$S,,,,,,,,,
Cannabipiperidiethanone,C$_{24}$H$_{28}$N$_{2}$O$_{2}$,,,,,,,,,
CGS-12066A,C$_{17}$H$_{17}$F$_{3}$N$_{4}$,,,,,,,,,
Dexmedetomidine,C$_{13}$H$_{16}$N$_{2}$,,,,,,,,,
Allolactose,C$_{12}$H$_{22}$O$_{11}$,342.296,g/mol,,,,,,,
Tedizolid,C$_{17}$H$_{15}$FN$_{6}$O$_{3}$,,,,,,,,,
Barium carbonate,BaCO$_{3}$,,,811,$^{\circ}$C,4.286,g/cm$^{3}$,1450,$^{\circ}$C,16
Rauwolscine,C$_{21}$H$_{26}$N$_{2}$O$_{3}$,,,,,,,,,
Plutonium(IV) oxide,O$_{2}$Pu,,,2400,$^{\circ}$C,,,2800,$^{\circ}$C,
Batoprazine,C$_{13}$H$_{14}$N$_{2}$O$_{2}$,,,,,,,,,
Bipinnatin J,C$_{20}$H$_{24}$O$_{4}$,,,140-142,$^{\circ}$C,,,,,
Azoxymethane,C$_{2}$H$_{6}$N$_{2}$O,,,,,,,97-99,$^{\circ}$C,
Brilliant cresyl blue,(C$_{17}$H$_{20}$ClN$_{3}$O)$_{2}$.ZnCl$_{2}$,385.96,g/mol,233-236,$^{\circ}$C,,,,,
Calcium oxide,CaO,56.0774,g/mol,2613,$^{\circ}$C,3.34,g/cm$^{3}$,3850,$^{\circ}$C,1.19
Insulin degludec,,,,,,,,,,
Brilliant Black BN,C$_{28}$H$_{17}$N$_{5}$Na$_{4}$O$_{14}$S$_{4}$,867.68,g/mol,,,,,,,
Enobosarm,C$_{19}$H$_{14}$F$_{3}$N$_{3}$O$_{3}$,,,70,$^{\circ}$C,,,,,
Penicillic acid,C$_{8}$H$_{10}$O$_{4}$,170.16,g/mol,,,,,,,
Lithium nitride,Li$_{3}$N,34.83,g/mol,813,$^{\circ}$C,1.270,g/cm$^{3}$,,,reacts
Scandium(III) hydride,ScH$_{3}$,,,,,,,,,
Ethchlorvynol,C$_{7}$H$_{9}$ClO,,,,,,,,,
Ravuconazole,C$_{22}$H$_{17}$F$_{2}$N$_{5}$OS,,,,,,,,,
EA-3167,C$_{20}$H$_{29}$NO$_{3}$,,,,,,,,,
Iron(III) oxide,Fe$_{2}$O$_{3}$,,,1539-1565,$^{\circ}$C,5.242,g/cm$^{3}$,,,Insoluble
S32212,C$_{25}$H$_{28}$N$_{4}$O$_{2}$,,,,,,,,,
Cetrimonium chloride,C$_{19}$H$_{42}$ClN,320.00,g/mol,,,,,,,
Mitozolomide,C$_{7}$H$_{7}$ClN$_{6}$O$_{2}$,,,,,,,,,
ABT-724,C$_{17}$H$_{19}$N$_{5}$,,,,,,,,,
Valencene,C$_{15}$H$_{24}$,,,,,,,123,$^{\circ}$C,
Pifithrin,C$_{16}$H$_{19}$BrN$_{2}$OS,367.30,g/mol,192.1,$^{\circ}$C,,,,,
Ammonium paratungstate,(NH$_{4}$)$_{10}$(H$_{2}$W$_{12}$O$_{42}$)$_{.4}$H$_{2}$O,3132.2,g/mol,,,,,Decomposes at 600,$^{\circ}$C,
Perilla ketone,C$_{10}$H$_{14}$O$_{2}$,,,<25,$^{\circ}$C,0.9920,g/cm$^{3}$,196,$^{\circ}$C,
Coomassie Brilliant Blue,C$_{47}$H$_{50}$N$_{3}$NaO$_{7}$S$_{2}$(Sodiumsalt),856.03,g/mol,,,,,,,"Slightly soluble in cold, soluble in hot (bright blue)"
Diphenyl diselenide,C$_{12}$H$_{10}$Se$_{2}$,,,59-61,$^{\circ}$C,1.84,g/cm$^{3}$,,,
Fluoroantimonic acid,H$_{2}$SbF$_{7}$,,,,,2.885,g/cm$^{3}$,,,
Nepetin,C$_{16}$H$_{12}$O$_{7}$,316.26,g/mol,,,,,,,
Acetone oxime,C$_{3}$H$_{7}$NO,,,60,$^{\circ}$C,,,135,$^{\circ}$C,330
MDAI,C$_{10}$H$_{11}$NO$_{2}$,,,,,,,,,
Caesium iodide,CsI,259.81,g/mol,621,$^{\circ}$C,,,1277$\pm$5,$^{\circ}$C,44
Methyl thiocyanate,C$_{2}$H$_{3}$NS,,,-51,$^{\circ}$C,1.074,g/cm$^{3}$,132,$^{\circ}$C,Slightly soluble
Gacyclidine,C$_{16}$H$_{25}$NS,,,,,,,,,
Aromadendrin,C$_{15}$H$_{12}$O$_{6}$,,,,,,,,,
Methylenedioxyethylamphetamine,C$_{12}$H$_{17}$NO$_{2}$,,,,,,,,,
Deleobuvir,C$_{34}$H$_{33}$BrN$_{6}$O$_{3}$,,,,,,,,,
Arzoxifene,C$_{28}$H$_{29}$NO$_{4}$S,475.60,g/mol,,,,,,,
Perampanel,C$_{23}$H$_{15}$N$_{3}$O,,,,,,,,,
Pheneticillin,C$_{17}$H$_{20}$N$_{2}$O$_{5}$S,,,,,,,,,
Nitrogen trifluoride,NF$_{3}$,71.00,g/mol,-207.15,$^{\circ}$C,,,-129.06,$^{\circ}$C,0.021
Phenibut,C$_{10}$H$_{13}$NO$_{2}$,,,,,,,,,
Hentriacontane,C$_{31}$H$_{64}$,,,,,,,458,$^{\circ}$C,
Titanium(II) oxide,TiO,63.866,g/mol,1750,$^{\circ}$C,4.95,g/cm$^{3}$,,,
Benzoyl chloride,C$_{7}$H$_{5}$ClO,,,-1,$^{\circ}$C,,,197.2,$^{\circ}$C,reacts
Calcium sulfate,pKa10.4(anhydrous),,,,,,,,,
Fesoterodine,C$_{26}$H$_{37}$NO$_{3}$,,,,,,,,,
Phenicarbazide,C$_{7}$H$_{9}$N$_{3}$O,,,,,,,,,
Zirconium disulfide,ZrS$_{2}$,155.356,g/mol,1480,$^{\circ}$C,3.82,g/cm$^{3}$,,,insoluble
Shvo catalyst,C$_{62}$H$_{42}$O$_{6}$Ru$_{2}$,,,223,$^{\circ}$C,,,,,polar organic solvents
Toralizumab,C$_{6428}$H$_{9976}$N$_{1720}$O$_{2018}$S$_{42}$,,,,,,,,,
Cyanopindolol,C$_{16}$H$_{21}$N$_{3}$O$_{2}$,,,,,,,,,
Selenium hexasulfide,Se$_{2}$S$_{6}$,350.32,g/mol,121.5,$^{\circ}$C,2.44,g/cm$^{3}$,,,
Absinthin,C$_{30}$H$_{40}$O$_{6}$,,,,,,,,,
Ponazuril,C$_{18}$H$_{14}$F$_{3}$N$_{3}$O$_{6}$S,,,,,,,,,
Methylcyclopentadienyl manganese tricarbonyl,C$_{9}$H$_{7}$MnO$_{3}$,218.09,g/mol,-1,$^{\circ}$C,1.38,g/cm$^{3}$,232-233,$^{\circ}$C,
Mazindol,C$_{16}$H$_{13}$ClN$_{2}$O,,,,,,,,,
Dexanabinol,C$_{25}$H$_{38}$O$_{3}$,,,,,,,,,
Levosimendan,C$_{14}$H$_{12}$N$_{6}$O,,,,,,,,,
Octamethylcyclotetrasiloxane,C$_{8}$H$_{24}$O$_{4}$Si$_{4}$,,,17-18,$^{\circ}$C,,,175-176,$^{\circ}$C,56.2$\pm$2.5
Tetraethylammonium,C$_{8}$H$_{20}$N+,130.25,g/mol,,,,,,,
Diallyllysergamide,C$_{22}$H$_{25}$N$_{3}$O,,,,,,,,,
Ericolol,C$_{18}$H$_{24}$ClNO$_{3}$,,,,,,,,,
Lucanthone,C$_{20}$H$_{24}$N$_{2}$OS,,,,,,,,,
BIBP-3226,C$_{27}$H$_{31}$N$_{5}$O$_{3}$,,,,,,,,,
Pyridoxal phosphate,C$_{8}$H$_{10}$NO$_{6}$P,247.142,g/mol,,,,,,,
Beclamide,C$_{10}$H$_{12}$ClNO,,,,,,,,,
Farletuzumab,C$_{6466}$H$_{9928}$N$_{1716}$O$_{2020}$S$_{42}$,,,,,,,,,
Aleuritin,C$_{21}$H$_{20}$O$_{9}$,416.37,g/mol,,,,,,,
Pentadecanoic acid,C$_{15}$H$_{30}$O$_{2}$,,,51-53,$^{\circ}$C,0.842,g/cm$^{3}$,257,$^{\circ}$C,
Indium(III) sulfate,In$_{2}$(SO$_{4}$)$_{3}$,517.81,g/mol,decomposes at 600,$^{\circ}$C,,,,,"soluble, (539.2 g/L at 20 $^{\circ}$C)"
Bexlosteride,C$_{14}$H$_{16}$ClNO,,,,,,,,,
JWH-176,C$_{25}$H$_{24}$,,,,,,,,,
Amprolium,C$_{14}$H$_{19}$N$^{+}_{4}$.Cl$^{-}$,,,,,,,,,
Doramectin,C$_{50}$H$_{74}$O$_{14}$,,,,,,,,,
Alacepril,C$_{20}$H$_{26}$N$_{2}$O$_{5}$S,,,,,,,,,
Hydrogen peroxide,H$_{2}$O$_{2}$,34.0147,g/mol,-0.43,$^{\circ}$C,1.135,g/cm$^{3}$,150.2,$^{\circ}$C,Miscible
Luteolinidin,C$_{15}$H$_{11}$O$^{+}_{5}$,271.24,g/mol,,,,,,,
Blattellaquinone,C$_{12}$H$_{14}$O$_{4}$,222.24,g/mol,,,,,,,
Tebbe's reagent,C$_{13}$H$_{18}$AlClTi,284.60,g/mol,,,,,,,
Ammonium diethyl dithiophosphate,C$_{4}$H$_{14}$NO$_{2}$PS$_{2}$,,,,,,,,,
Cevimeline,C$_{10}$H$_{17}$NOS,,,,,,,,,
Tebupirimfos,Ba(CN)$_{2}$,,,,,1.146,g/cm$^{3}$,135,$^{\circ}$C,
Paeoniflorin,C$_{23}$H$_{28}$O,,,,,,,,,
Dichloroisoprenaline,C$_{11}$H$_{15}$Cl$_{2}$NO,248.15,g/mol,,,,,,,
Diphenyl carbonate,C$_{13}$H$_{10}$O$_{3}$,214.216,g/mol,83,$^{\circ}$C,,,306,$^{\circ}$C,insoluble
Rasburicase,C$_{1521}$H$_{2381}$N$_{417}$O$_{461}$S$_{7}$,,,,,,,,,
Lugduname,C$_{18}$H$_{16}$N$_{4}$O$_{4}$,352.34,g/mol,,,,,,,
Platinum(II) bromide,Br$_{2}$Pt,354.886,g/mol,250,$^{\circ}$C,,,,,insol.
Ibutilide,C$_{20}$H$_{36}$N$_{2}$O$_{3}$S,,,,,,,,,
Cocamide MEA,CH$_{3}$(CH$_{2}$)$_{n}$CONHCH$_{2}$CH$_{2}$OH,,,60-63,$^{\circ}$C,1.08-1.09,g/cm$^{3}$,200,$^{\circ}$C,
Iocarmic acid,,,,,,,,,,
Dimefox,C$_{2}$H$_{4}$ClNO,54.123044,g/mol,,,,,,,1000000
Sulfamethizole,C$_{9}$H$_{10}$N$_{4}$O$_{2}$S$_{2}$,,,,,,,,,
Silver arsenate,Ag$_{3}$AsO$_{4}$,462.52,g/mol,830,$^{\circ}$C,6.657,g/cm$^{3}$,,,0.0064
Calcium dobesilate,,,,,,,,,,
Bismuth(III) acetate,Bi(CH$_{3}$COO)$_{3}$,,,,,,,,,
Tilmicosin,C$_{46}$H$_{80}$N$_{2}$O$_{13}$,,,,,,,,,566
Diethylcarbamazine,C$_{10}$H$_{21}$N$_{3}$O,,,,,,,,,
Tungsten(IV) telluride,WTe$_{2}$,439.04,g/mol,1020,$^{\circ}$C,,,,,
Prothoate,C$_{9}$H$_{20}$NO$_{3}$PS$_{2}$,,,,,,,,,
Pigment yellow 83,C$_{36}$H$_{32}$Cl$_{4}$N$_{6}$O$_{8}$,,,,,,,,,
Etafenone,C$_{21}$H$_{27}$NO$_{2}$,,,,,,,,,
Proglumetacin,C$_{46}$H$_{58}$ClN$_{5}$O$_{8}$,,,,,,,,,
Lithium borohydride,LiBH$_{4}$,21.784,g/mol,268,$^{\circ}$C,0.666,g/cm$^{3}$,380,$^{\circ}$C,reacts
Cyclooctatetraene,C$_{8}$H$_{8}$,104.15,g/mol,-5--3,$^{\circ}$C,,,142-143,$^{\circ}$C,immiscible
Phenylhydroxylamine,C$_{6}$H$_{7}$NO,109.1274,g/mol,80-81,$^{\circ}$C,,,,,
Clomazone,C$_{12}$H$_{14}$ClNO$_{2}$,,,,,,,,,
Halometasone,C$_{22}$H$_{27}$ClF$_{2}$O$_{5}$,,,,,,,,,
Radafaxine,C$_{13}$H$_{18}$ClNO$_{2}$,,,,,,,,,
Acitretin,C$_{21}$H$_{26}$O$_{3}$,,,,,,,,,
Caproxamine,C$_{15}$H$_{25}$N$_{3}$O,,,,,,,,,
Bromodichloromethane,CHBrCl$_{2}$,163.8,g/mol,-57,$^{\circ}$C,1.980,g/cm$^{3}$,90,$^{\circ}$C,4.5
Pyriproxyfen,C$_{20}$H$_{19}$NO$_{3}$,321.369,g/mol,46,$^{\circ}$C,1.2,g/cm$^{3}$,,,
Phentolamine,C$_{17}$H$_{19}$N$_{3}$O,,,,,,,,,
Folic acid,C$_{19}$H$_{19}$N$_{7}$O$_{6}$,,,250,$^{\circ}$C,,,,,1.6
Chromium(III) acetylacetonate,C$_{15}$H$_{21}$CrO$_{6}$,,,210,$^{\circ}$C,1.34,g/cm$^{3}$,340,$^{\circ}$C,
Pentosidine,C$_{17}$H$_{26}$N$_{6}$O$_{4}$,,,,,1.47,g/cm$^{3}$,,,
Hyaluronan,(C$_{14}$H$_{21}$NO$_{11}$)$_{n}$,,,,,,,,,soluble (sodium salt)
Iodine monobromide,IBr,206.904,g/mol,42,$^{\circ}$C,,,116,$^{\circ}$C,
Sertraline,C$_{17}$H$_{17}$Cl$_{2}$N,,,,,,,,,
GR-196 429,,,,,,,,,,
Sitafloxacin,C$_{19}$H$_{18}$ClF$_{2}$N$_{3}$O$_{3}$,,,,,,,,,
Cyanuric triazide,C$_{3}$N$_{12}$,,,94,$^{\circ}$C,,,150,$^{\circ}$C,
DPI-287,C$_{31}$H$_{39}$N$_{3}$O$_{2}$,,,,,,,,,
SB-699551,C$_{34}$H$_{45}$N$_{3}$O,,,,,,,,,
Lead(IV) acetate,Pb(C$_{2}$H$_{3}$O$_{2}$)$_{4}$,443.376,g/mol,175,$^{\circ}$C,2.228,g/cm$^{3}$,,,reacts with water
Ascorbyl palmitate,C$_{22}$H$_{38}$O$_{7}$,414.533,g/mol,116-117,$^{\circ}$C,,,,,Very slightly soluble in water
Rosinidin,C$_{17}$H$_{15}$O$_{6}$+,315.30,g/mol,,,,,,,
Bromoacetylalprenololmenthane,C$_{24}$H$_{37}$BrN$_{2}$O$_{3}$,,,,,,,,,
Zwittermicin A,C$_{13}$H$_{28}$N$_{6}$O$_{8}$,,,,,,,,,
Trimethylamine N-oxide,C$_{3}$H$_{9}$NO,,,220-222,$^{\circ}$C,,,,,good
Pipecuronium bromide,,,,,,,,,,
A-412 997,,,,,,,,,,
Anisole,C$_{7}$H$_{8}$O,,,-37,$^{\circ}$C,0.995,g/cm$^{3}$,154,$^{\circ}$C,
Disiamylborane,C$_{10}$H$_{23}$B,153.09,g/mol,,,,,,,
Triethyl phosphite,C$_{6}$H$_{15}$O$_{3}$P,166.16,g/mol,-70,$^{\circ}$C,,,156,$^{\circ}$C,organic solvents
Dihydrophloroglucinol,C$_{6}$H$_{8}$O$_{3}$,,,,,,,,,
N-Phenethylnormorphine,C$_{24}$H$_{25}$NO$_{3}$,,,,,,,,,
Rhodionin,C$_{21}$H$_{20}$O,,,,,,,,,
Dimethoxanate,C$_{19}$H$_{22}$N$_{2}$O$_{3}$S,,,,,,,,,
Adamsite,C$_{12}$H$_{9}$AsClN,,,195,$^{\circ}$C,,,410,$^{\circ}$C,0.064
AM-411,C$_{26}$H$_{34}$O$_{2}$,,,,,,,,,
Glycol distearate,C$_{38}$H$_{74}$O$_{4}$,,,65-73,$^{\circ}$C,,,,,Insoluble
Acetyl-CoA,C$_{23}$H$_{38}$N$_{7}$O$_{17}$P$_{3}$S,809.57,g/mol,,,,,,,
Laropiprant,C$_{21}$H$_{19}$ClFNO$_{4}$S,,,,,,,,,
Halostachine,C$_{9}$H$_{13}$NO,,,43-45,$^{\circ}$C,,,,,
Guanosine diphosphate,C$_{10}$H$_{15}$N$_{5}$O$_{11}$P$_{2}$,,,,,,,,,
Thallium(I) oxide,Tl$_{2}$O,424.77,g/mol,596,$^{\circ}$C,10.45,g/cm$^{3}$,1080,$^{\circ}$C,soluble
Sialyl-Lewis X,C$_{31}$H$_{52}$N$_{2}$O$_{23}$,820.744,g/mol,,,,,,,
TRISPHAT,(C$_{16}$H$_{36}$N)(C$_{18}$Cl$_{12}$O$_{6}$P),,,,,,,,,CH$_{2}$Cl$_{2}$
Methyl-DOB,C$_{12}$H$_{18}$BrNO$_{2}$,288.181,g/mol,,,,,,,
Taspine,C$_{20}$H$_{19}$NO$_{6}$,369.4,g/mol,,,,,,,
Tropoxane,C$_{15}$H$_{16}$Cl$_{2}$O$_{3}$,,,,,,,,,
PARGY-LAD,C$_{22}$H$_{25}$N$_{3}$O,,,,,,,,,
Galmic,C$_{51}$H$_{60}$N$_{10}$O,,,,,,,,,
Furantetracarboxylic acid,C$_{8}$H$_{4}$O$_{9}$,244.11,g/mol,,,,,,,
Ubenimex,C$_{16}$H$_{24}$N$_{2}$O$_{4}$,,,245,$^{\circ}$C,,,,,
Thiamethoxam,C$_{8}$H$_{10}$ClN$_{5}$O$_{3}$S,,,139.1,$^{\circ}$C,1.57,g/cm$^{3}$,,,4.1
Sulfonmethane,C$_{7}$H$_{16}$O$_{4}$S$_{2}$,,,,,,,,,
Phenidone,C$_{9}$H$_{10}$N$_{2}$O,,,121,$^{\circ}$C,,,,,10
Diisobutyl phthalate,C$_{16}$H$_{22}$O$_{4}$,278.35,g/mol,-37,$^{\circ}$C,1.038,g/cm$^{3}$,320,$^{\circ}$C,1
Dimemorfan,C$_{18}$H$_{25}$N,,,,,,,,,
Phaseolin (pterocarpan),C$_{20}$H$_{18}$O$_{4}$,,,,,,,,,
P-Cymene,C$_{10}$H$_{14}$,134.21,g/mol,-68,$^{\circ}$C,0.857,g/cm$^{3}$,177,$^{\circ}$C,23.4
Dihydrostreptomycin,C$_{21}$H$_{41}$N$_{7}$O$_{12}$,,,,,,,,,
Ethylene oxide,C$_{2}$H$_{4}$O,,,-111.3,$^{\circ}$C,,,10.7,$^{\circ}$C,miscible
Urtoxazumab,C$_{6414}$H$_{9934}$N$_{1718}$O$_{2010}$S$_{40}$,,,,,,,,,
Vanadium nitride,VN,64.9482,g/mol,2050,$^{\circ}$C,6.13,g/cm$^{3}$,,,
TASF reagent,C$_{9}$H$_{27}$F$_{2}$SiSN$_{3}$,,,98-101,$^{\circ}$C,,,,,
Ribitol,C$_{5}$H$_{12}$O$_{5}$,,,102,$^{\circ}$C,,,,,
Methylene (compound),CH$^{2.}_{2}$,,,,,,,,,Reacts
EBC-46,C$_{30}$H$_{42}$O$_{10}$,,,,,,,,,
Roxatidine,C$_{19}$H$_{28}$N$_{2}$O$_{4}$,,,,,,,,,
Loxtidine,C$_{19}$H$_{29}$N$_{5}$O$_{2}$,,,,,,,,,
Ceric ammonium nitrate,H$_{8}$N$_{8}$CeO$_{18}$,548.26,g/mol,107-108,$^{\circ}$C,,,,,141
Pemirolast,C$_{10}$H$_{8}$N$_{6}$O,,,,,,,,,
Norartocarpetin,C$_{15}$H$_{10}$O$_{6}$,286.23,g/mol,,,,,,,
Pipazetate,C$_{21}$H$_{25}$N$_{3}$O$_{3}$S,,,,,,,,,
Caspofungin,C$_{52}$H$_{88}$N$_{10}$O$_{15}$,,,,,,,,,
Annamycin,C$_{26}$H$_{25}$IO,,,,,,,,,
Amfonelic acid,,,,,,,,,,
Vesencumab,C$_{6430}$H$_{9948}$N$_{1708}$O$_{2016}$S$_{48}$,,,,,,,,,
Tetramethylazodicarboxamide,C$_{6}$H$_{12}$N$_{4}$O$_{2}$,,,113-115,$^{\circ}$C,,,,,
Promethium(III) chloride,PmCl$_{3}$,,,737,$^{\circ}$C,,,1670,$^{\circ}$C,
Gabapentin enacarbil,,,,,,,,,,
Firocoxib,C$_{17}$H$_{20}$O$_{5}$S,,,,,,,,,
Butynamine,C$_{10}$H$_{19}$N,,,,,,,,,
IBNtxA,C$_{27}$H$_{29}$IN$_{2}$O$_{4}$,,,,,,,,,
Meclocycline,C$_{22}$H$_{21}$ClN$_{2}$O$_{8}$,,,,,,,,,
Tectorigenin,C$_{16}$H$_{12}$O$_{6}$,300.26,g/mol,,,,,,,
AM-2389,C$_{25}$H$_{38}$O$_{3}$,,,,,,,,,
Prosopine,C$_{18}$H$_{37}$NO$_{3}$,315.49,g/mol,,,,,,,
Lithium citrate,Li$_{3}$C$_{6}$H$_{5}$O$_{7}$,,,decomposes at 105,$^{\circ}$C,,,,,
N-Methylphenethylamine,C$_{9}$H$_{13}$N,,,,,,,203,$^{\circ}$C,
Embramine,C$_{18}$H$_{22}$BrNO,,,,,,,,,
Linopirdine,C$_{26}$H$_{21}$N$_{3}$O,,,,,,,,,
BAY 60-6583,C$_{19}$H$_{17}$N$_{5}$O$_{2}$S,,,,,,,,,
Conivaptan,C$_{32}$H$_{26}$N$_{4}$O$_{2}$,,,,,,,,,
Hexadecacarbonylhexarhodium,C$_{16}$O$_{16}$Rh$_{6}$,1065.62,g/mol,235,$^{\circ}$C,,,,,
Norsalsolinol,C$_{9}$H$_{11}$NO$_{2}$,165.189,g/mol,,,,,,,
Ampelopsin A,C$_{28}$H$_{22}$O$_{7}$,470.47,g/mol,,,,,,,
Morinamide,C$_{10}$H$_{14}$N$_{4}$O$_{2}$,,,,,,,,,
Hirsutidin,C$_{18}$H$_{17}$O$_{7}$+,345.32,g/mol,,,,,,,
Thioacetamide,C$_{2}$H$_{5}$NS,75.13,g/mol,115,$^{\circ}$C,1.269,g/cm$^{3}$,,,good
Beta-Tocopherol,C$_{28}$H$_{48}$O$_{2}$,416.68,g/mol,,,,,,,
Bicyclobutane,C$_{4}$H$_{6}$,,,,,,,,,
Cefozopran,C$_{19}$H$_{17}$N$_{9}$O$_{5}$S$_{2}$,,,,,,,,,
Titanium(IV) hydride,TiH$_{4}$,,,,,,,,,Reacts
Iclaprim,C$_{19}$H$_{22}$N$_{4}$O$_{3}$,,,,,,,,,
Bendroflumethiazide,C$_{15}$H$_{14}$F$_{3}$N$_{3}$O$_{4}$S$_{2}$,,,,,,,,,
Centralite,C$_{17}$H$_{20}$N$_{2}$O,,,,,0.8,g/cm$^{3}$,,,Insoluble
GYKI-52 466,C$_{17}$H$_{15}$N$_{3}$O$_{2}$,293.32,g/mol,,,1.393,g/cm$^{3}$,,,>10
Dalbavancin,C$_{88}$H$_{100}$Cl$_{2}$N$_{10}$O$_{28}$,,,,,,,,,
Mellein,C$_{10}$H$_{10}$O$_{3}$,178.18,g/mol,,,,,,,
Alamethicin,C$_{92}$H$_{150}$N$_{22}$O$_{25}$,1964.31,g/mol,255-270,$^{\circ}$C,,,,,Insoluble
Thiocolchicoside,C$_{27}$H$_{33}$NO$_{10}$S,,,,,,,,,
Selenium tetrafluoride,SeF$_{4}$,154.954,g/mol,-13.2,$^{\circ}$C,2.77,g/cm$^{3}$,101,$^{\circ}$C,
Draquinolol,C$_{24}$H$_{30}$N$_{2}$O$_{4}$,,,,,,,,,
Alpha-Chlorocodide,C$_{18}$H$_{20}$ClNO$_{2}$,,,151-154,$^{\circ}$C,,,,,
Sodium thioantimoniate,Na$_{3}$SbS$_{4}$.9H$_{2}$O,,,87,$^{\circ}$C,,,,,
LY-487 379,,,,,,,,,,
Coclaurine,C$_{17}$H$_{19}$NO$_{3}$,285.3,g/mol,,,,,,,
Reverse triiodothyronine,C$_{15}$H$_{12}$I$_{3}$NO$_{4}$,,,,,,,,,
Mesaconic acid,C$_{5}$H$_{6}$O$_{4}$,130.10,g/mol,204-205,$^{\circ}$C,1.31,g/cm$^{3}$,250,$^{\circ}$C,
Furazan,C$_{2}$H$_{2}$N$_{2}$O,,,,,,,98,$^{\circ}$C,
PB-28,C$_{24}$H$_{38}$N$_{2}$O,370.57,g/mol,,,,,,,
Silver phosphate,Ag$_{3}$PO$_{4}$,,,849,$^{\circ}$C,6.370,g/cm$^{3}$,,,0.00065
HU-210,C$_{25}$H$_{38}$O$_{3}$,,,,,,,,,
Mevastatin,C$_{23}$H$_{34}$O$_{5}$,,,,,,,,,
Bisoprolol,C$_{18}$H$_{31}$NO$_{4}$,,,,,,,,,
Hydrocortisone buteprate,,,,,,,,,,
Bis-TOM,C$_{12}$H$_{19}$NS$_{2}$,241.42,g/mol,,,,,,,
Cysteic acid,C$_{3}$H$_{7}$NO$_{5}$S,169.16,g/mol,,,,,,,soluble
Wikipedia:WikiProject Medicine/Translation task force/RTT/Simple hydrochlorothiazide,,,,,,,,,,
Propane,C$_{3}$H$_{8}$,,,,,,,,,40
Sulforhodamine B,C$_{27}$H$_{30}$N$_{2}$O$_{7}$S$_{2}$,558.666,g/mol,,,,,,,
Butaclamol,C$_{25}$H$_{31}$NO,,,,,,,,,
Doravirine,C$_{17}$H$_{11}$ClF$_{3}$N$_{5}$O$_{3}$,,,,,,,,,
Indanidine,C$_{11}$H$_{13}$N$_{5}$,,,,,,,,,
Sodium sesquicarbonate,Na$_{3}$C$_{2}$O$_{6}$H,,,,,2.112,g/cm$^{3}$,,,dihydrate  13
Nordihydrocapsaicin,C$_{17}$H$_{27}$NO$_{3}$,293.41,g/mol,,,,,,,negligible
Propenidazole,C$_{11}$H$_{13}$N$_{3}$O$_{5}$,,,,,,,,,
Indantadol,C$_{11}$H$_{14}$N$_{2}$O,,,,,,,,,
Orphenadrine,C$_{18}$H$_{23}$NO,,,,,,,,,
Hydroxymatairesinol,C$_{20}$H$_{22}$O$_{7}$,,,,,,,,,
Amavadin,(VNO(CH(CH$_{3}$)CO$_{2}$)$_{2}$)$^{2-}$,398.94,g/mol,,,,,,,
Triiodothyronine,C$_{15}$H$_{12}$I$_{3}$NO$_{4}$,,,,,,,,,
Carazolol,C$_{18}$H$_{22}$N$_{2}$O$_{2}$,,,,,,,,,
Diucifon,C$_{22}$H$_{20}$N$_{6}$O$_{10}$S$_{3}$,,,,,,,,,
Propicillin,C$_{18}$H$_{22}$N$_{2}$O$_{5}$S,,,,,,,,,
Rutinose,C$_{12}$H$_{22}$O$_{10}$,326.297,g/mol,,,,,,,
Imidazole,C$_{3}$H$_{4}$N$_{2}$,68.077,g/mol,89-91,$^{\circ}$C,,,256,$^{\circ}$C,Soluble
Tenitramine,C$_{10}$H$_{20}$N$_{6}$O$_{12}$,416.30,g/mol,,,,,,,
Imafen,C$_{11}$H$_{13}$N$_{3}$,,,,,,,,,
Hypobromous acid,HBrO,,,,,,,,,
Melamine cyanurate,C$_{6}$H$_{9}$N$_{9}$O$_{3}$,255.19,g/mol,,,,,,,none
Urea nitrate,CH$_{5}$N$_{3}$O$_{4}$,123.068,g/mol,163,$^{\circ}$C,1.69,g/cm$^{3}$,,,
Ethionine,C$_{6}$H$_{13}$NO$_{2}$S,163.239,g/mol,,,,,,,
Diaminopimelic acid,C$_{7}$H$_{14}$N$_{2}$O$_{4}$,190.20,g/mol,295,$^{\circ}$C,,,426.7,$^{\circ}$C,
Imidapril,C$_{20}$H$_{27}$N$_{3}$O$_{6}$,,,,,,,,,
Dioxygen difluoride,O$_{2}$F$_{2}$,,,-154,$^{\circ}$C,1.45,g/cm$^{3}$,-57,$^{\circ}$C,
Clorobiocin,C$_{35}$H$_{37}$ClN$_{2}$O,,,,,,,,,
Diboron tetrachloride,B$_{2}$Cl$_{4}$,163.433,g/mol,-92.6,$^{\circ}$C,1.5,g/cm$^{3}$,65.5,$^{\circ}$C,
Tezampanel,C$_{13}$H$_{21}$N$_{5}$O$_{2}$,,,,,,,,,
Potassium arsenite,AsKO$_{2}$,146.019,g/mol,,,8.76,g/cm$^{3}$,,,slightly soluble
Florfenicol,C$_{12}$H$_{14}$Cl$_{2}$FNO$_{4}$S,,,,,,,,,
Adiphenine,C$_{20}$H$_{25}$NO$_{2}$,,,112-114,$^{\circ}$C,,,,,
Chlorpyrifos,C$_{9}$H$_{11}$Cl$_{3}$NO$_{3}$PS,350.59,g/mol,42,$^{\circ}$C,1.398,g/cm$^{3}$,,,
Difucol,C$_{12}$H$_{10}$O$_{6}$,250.20,g/mol,,,,,,,
Monastrol,C$_{14}$H$_{16}$N$_{2}$O$_{3}$S,,,,,,,,,
Pyrazolam,C$_{16}$H$_{12}$BrN$_{5}$,,,,,,,,,
Clofenamide,C$_{6}$H$_{7}$ClN$_{2}$O$_{4}$S$_{2}$,,,,,,,,,
Chloroethylclonidine,C$_{13}$H$_{17}$Cl$_{3}$N$_{4}$,,,,,,,,,
Azimilide,C$_{23}$H$_{28}$ClN$_{5}$O$_{3}$,,,,,,,,,
Zalutumumab,C$_{6512}$H$_{10074}$N$_{1734}$O$_{2032}$S$_{46}$,,,,,,,,,
Ethoheptazine,C$_{16}$H$_{23}$NO$_{2}$,,,,,,,,,
Proxazole,C$_{17}$H$_{25}$N$_{3}$O,,,,,,,,,
Aluminium(II) oxide,AlO,42.98,g/mol,,,,,,,
Ciramadol,C$_{15}$H$_{23}$NO$_{2}$,,,,,,,,,
Loteprednol,C$_{24}$H$_{31}$ClO$_{7}$,,,,,,,,,
Vanoxerine,C$_{28}$H$_{32}$F$_{2}$N$_{2}$O,,,,,,,,,
Acetylide,HC$^{2-}$,,,,,,,,,
Valerophenone,C$_{11}$H$_{14}$O,162.23,g/mol,-9.4,$^{\circ}$C,0.988,g/cm$^{3}$,105-107,$^{\circ}$C,
Alaproclate,C$_{13}$H$_{18}$ClNO$_{2}$,,,,,,,,,
Orotic acid,,,,,,,,,,
Intravenous sodium bicarbonate,,,,,,,,,,
Malvidin glucoside-ethyl-catechin,C$_{41}$H$_{43}$O$_{17}$,807.76,g/mol,,,,,,,
MT-45,C$_{24}$H$_{32}$N$_{2}$,,,,,,,,,
Allantoin,C$_{4}$H$_{6}$N$_{4}$O$_{3}$,,,230,$^{\circ}$C,1.45,g/cm$^{3}$,478,$^{\circ}$C,0.57
WAY-213 613,,,,,,,,,,
Crimidine,C$_{7}$H$_{10}$ClN$_{3}$,,,,,,,,,
Alpha-Parinaric acid,C$_{18}$H$_{28}$O$_{2}$,,,85,$^{\circ}$C,,,,,
Cefdaloxime,C$_{14}$H$_{15}$N$_{5}$O$_{6}$S$_{2}$,,,,,,,,,
Cyprenorphine,C$_{26}$H$_{33}$NO$_{4}$,,,,,,,,,
Methylnaltrexone,C$_{21}$H$_{26}$NO$_{4}$,,,,,,,,,
Clorexolone,C$_{14}$H$_{17}$ClN$_{2}$O$_{3}$S,,,,,,,,,