Property Melting Point,Property Density,Property Boiling Point,Property Solubility,Property Molar Mass,Name,formula
,,,,,Ritipenem,C$_{18}$H$_{21}$N$_{3}$O$_{2}$
,,,,,Cefpimizole,C$_{28}$H$_{26}$N$_{6}$O$_{10}$S$_{2}$
406,2.044,1327,85,,Potassium hydroxide,KOH
,,,4100,,Ractopamine,C$_{18}$H$_{23}$NO$_{3}$
,,,,367.44,Pitofenone,C$_{22}$H$_{25}$NO$_{4}$
2,,227,,135.1863,Benzothiazole,C$_{7}$H$_{5}$NS
,,,,,Isoguanine,C$_{5}$H$_{5}$N$_{5}$O
,,,,,Nordazepam,C$_{15}$H$_{11}$ClN$_{2}$O
233-235,,,5,346.37,Gibberellic acid,C$_{19}$H$_{22}$O$_{6}$
,,,,,Ephedrine,C$_{10}$H$_{15}$NO
-54,2.172,5,,115.357,Bromine monochloride,BrCl
,,,,2947.29,Amidorphin,C$_{131}$H$_{200}$N$_{30}$O$_{43}$S$_{2}$
,,,,,Methyclothiazide,C$_{9}$H$_{11}$Cl$_{2}$N$_{3}$O$_{4}$S$_{2}$
450,,800,anhydrous  0.091,169.33,Barium peroxide,BaO$_{2}$
,,,,,Tetrahydrodeoxycorticosterone,C$_{21}$H$_{34}$O$_{3}$
-70,,160,10,,Perfluoromethyldecalin,C$_{11}$F$_{20}$
,,,,228.07,Chlorquinaldol,C$_{10}$H$_{7}$Cl$_{2}$NO
,,,,,Haloperidol,C$_{21}$H$_{23}$ClFNO$_{2}$
,,,,,Tigatuzumab,C$_{6406}$H$_{9924}$N$_{1716}$O$_{2012}$S$_{46}$
31.6,0.893,268.7,0.015,,Decanoic acid,C$_{10}$H$_{20}$O$_{2}$
450,10.2,,insoluble,227.08,Adams's catalyst,PtO$_{2}$
60,,,,275.06,Bis(cyclooctadiene)nickel(0),C$_{16}$H$_{24}$Ni
75,,,,,Scopine,C$_{8}$H$_{13}$NO$_{2}$
,,,,,Benzethidine,C$_{23}$H$_{29}$NO$_{3}$
,2.71,,,111.33,Magnesium nickel hydride,Mg$_{2}$NiH$_{4}$
,,,,,Cardenolide,C$_{23}$H$_{34}$O$_{2}$
,,,,,L-694247,C$_{20}$H$_{21}$N$_{5}$O$_{3}$S
,,> 100,,1227.54,Polysorbate 20,C$_{58}$H$_{114}$O$_{26}$
,,,,,Cinamolol,C$_{16}$H$_{23}$NO$_{4}$
200,3.77,,62.5,375.198,Barium permanganate,BaMn$_{2}$O$_{8}$
,,,,,Verbascoside,C$_{29}$H$_{36}$O$_{15}$
,,,,175.23,Desosamine,C$_{8}$H$_{17}$NO$_{3}$
,,,,,Cinchonain-Ib,C$_{24}$H$_{20}$O$_{9}$
,,,,256.215,Iridium tetroxide,IrO$_{4}$
,,,,,Benziodarone,C$_{17}$H$_{12}$I$_{2}$O$_{3}$
,,,,,Ozolinone,C$_{11}$H$_{16}$N$_{2}$O$_{3}$S
,,,,,Cytidine monophosphate,C$_{9}$H$_{14}$N$_{3}$O$_{8}$P
,,,,212.15,Brivaracetam,C$_{11}$H$_{20}$N$_{2}$O$_{2}$
3900,12.2,,insoluble,190.5,Hafnium(IV) carbide,HfC
,,,,,Tafenoquine,C$_{24}$H$_{28}$F$_{3}$N$_{3}$O$_{3}$
,,,,,Solifenacin,C$_{23}$H$_{26}$N$_{2}$O$_{2}$
,,,,342.16,Mellitic acid,C$_{12}$H$_{6}$O$_{12}$
144-145,,,soluble,,Visnagin,C$_{13}$H$_{10}$O$_{4}$
,,,,,Metiamide,C$_{9}$H$_{16}$N$_{4}$S$_{2}$
-56,1.0887,158,Miscible,,Sarin,C$_{4}$H$_{10}$FO$_{2}$P
,,,,,Oxyphencyclimine,C$_{20}$H$_{28}$N$_{2}$O$_{3}$
146.7,,,Reacts,,Cyanogen iodide,CNI
,,,,,Oxiracetam,C$_{6}$H$_{10}$N$_{2}$O$_{3}$
,,,,1060.21,Bradykinin,C$_{50}$H$_{73}$N$_{15}$O$_{11}$
,,,,,Tropicamide,C$_{17}$H$_{20}$N$_{2}$O$_{2}$
,,,,,Amylocaine,C$_{14}$H$_{21}$NO$_{2}$
,,,,,Salicyluric acid,
,,,,,Azasetron,C$_{17}$H$_{20}$ClN$_{3}$O$_{3}$
,,,,,Triamcinolone,C$_{21}$H$_{27}$FO$_{6}$
,,,,286.27,Isosakuranetin,C$_{16}$H$_{14}$O$_{5}$
,4.385,,,214.746,Manganese(II) bromide,MnBr$_{2}$
5.6,0.8122,120.4,25,102.174,Pinacolyl alcohol,C$_{6}$H$_{14}$O
,,,,,Articaine,C$_{13}$H$_{20}$N$_{2}$O$_{3}$S
,,,,,Viminol,C$_{21}$H$_{31}$ClN$_{2}$O
,,,,,Talopram,C$_{20}$H$_{25}$NO
214,,200,,123.02,Selenourea,CH$_{4}$N$_{2}$Se
120,,,,,Amaranth (dye),C$_{20}$H$_{11}$N$_{2}$Na$_{3}$O$_{10}$S$_{3}$
,,,,755.98,Mitemcinal,C$_{40}$H$_{69}$NO$_{12}$
,,,,,Butenafine,C$_{23}$H$_{27}$N
,1.05,,,,Potassium bitartrate,KC$_{4}$H$_{5}$O$_{6}$
,,186,,,Perillene,C$_{10}$H$_{14}$O
-7.5,0.9181,223,0.2419,,Heptanoic acid,C$_{7}$H$_{14}$O$_{2}$
,,,,,Oroidin,C$_{11}$H$_{11}$Br$_{2}$N$_{5}$O
,,,,,Buclizine,C$_{28}$H$_{33}$ClN$_{2}$
225-227,1.3,,5,,Simazine,C$_{7}$H$_{12}$ClN$_{5}$
,,,,269.403,Thiobuscaline,C$_{14}$H$_{23}$NO$_{2}$S
,,,,,Bumadizone,C$_{19}$H$_{22}$N$_{2}$O$_{3}$
,,,,,Perfluoropentacene,C$_{22}$F$_{14}$
316,1.7,,,450.23,Hexanitrostilbene,C$_{14}$H$_{6}$N$_{6}$O$_{12}$
63,3.11,,,466.5281,Iodine trichloride,I$_{2}$Cl$_{6}$
6.5,0.978,227,,,Verbenone,C$_{10}$H$_{14}$O
,,,,,Tinidazole,C$_{8}$H$_{13}$N$_{3}$O$_{4}$S
,,,,,Aluminium(I) oxide,Al$_{2}$O
854,4.06,1453,0.17,279.4,Ytterbium(III) chloride,YbCl$_{3}$
161.75-165.23,,,,,Aminopyralid,C$_{6}$H$_{4}$Cl$_{2}$N$_{2}$O$_{2}$
420,4.74,,414,,Indium(III) bromide,InBr$_{3}$
,,,,,Ethylene-vinyl acetate,(C$_{2}$H$_{4}$)$_{n}$(C$_{4}$H$_{6}$O$_{2}$)$_{m}$
,,,,,Arimoclomol,C$_{14}$H$_{20}$ClN$_{3}$O$_{3}$
,,,,,Zoledronic acid,
1100,5.2,,insoluble,468.48,Copper(II) arsenate,Cu$_{3}$(AsO$_{4}$)$_{2}$
320,,,,600.09,Magnus' green salt,H$_{12}$Cl$_{4}$N$_{4}$Pt$_{2}$
,,,,,Variecolin,C$_{25}$H$_{36}$O$_{2}$
,,,,207.359,Dihydrolipoamide,C$_{8}$H$_{17}$NOS$_{2}$
,,,,,Hexetidine,C$_{21}$H$_{45}$N$_{3}$
204.7,2.75,248.2,decomposes,270.17,Niobium(V) chloride,NbCl$_{5}$
,,,,,Enalapril,C$_{20}$H$_{28}$N$_{2}$O$_{5}$
,,,,,Isavuconazole,C$_{22}$H$_{17}$F$_{2}$N$_{5}$OS
,,,,,Oryzalin,C$_{12}$H$_{18}$N$_{4}$O$_{6}$S
,,,,,Taniplon,C$_{14}$H$_{15}$N$_{5}$O$_{2}$
1925,3.87,,,274.01,Yttrium(III) sulfide,Y$_{2}$S$_{3}$
,,,,,A-68930,C$_{16}$H$_{17}$NO$_{3}$
,,,,,Phenformin,C$_{10}$H$_{15}$N$_{5}$
,,,,,Aviptadil,C$_{147}$H$_{237}$N$_{43}$O$_{43}$S
,,,,,Cannabipiperidiethanone,C$_{24}$H$_{28}$N$_{2}$O$_{2}$
,,,,,CGS-12066A,C$_{17}$H$_{17}$F$_{3}$N$_{4}$
,,,,,Dexmedetomidine,C$_{13}$H$_{16}$N$_{2}$
,,,,342.296,Allolactose,C$_{12}$H$_{22}$O$_{11}$
,,,,,Tedizolid,C$_{17}$H$_{15}$FN$_{6}$O$_{3}$
811,4.286,1450,16,,Barium carbonate,BaCO$_{3}$
,,,,,Rauwolscine,C$_{21}$H$_{26}$N$_{2}$O$_{3}$
2400,,2800,,,Plutonium(IV) oxide,O$_{2}$Pu
,,,,,Batoprazine,C$_{13}$H$_{14}$N$_{2}$O$_{2}$
140-142,,,,,Bipinnatin J,C$_{20}$H$_{24}$O$_{4}$
,,97-99,,,Azoxymethane,C$_{2}$H$_{6}$N$_{2}$O
233-236,,,,385.96,Brilliant cresyl blue,(C$_{17}$H$_{20}$ClN$_{3}$O)$_{2}$.ZnCl$_{2}$
2613,3.34,3850,1.19,56.0774,Calcium oxide,CaO
,,,,,Insulin degludec,
,,,,867.68,Brilliant Black BN,C$_{28}$H$_{17}$N$_{5}$Na$_{4}$O$_{14}$S$_{4}$
70,,,,,Enobosarm,C$_{19}$H$_{14}$F$_{3}$N$_{3}$O$_{3}$
,,,,170.16,Penicillic acid,C$_{8}$H$_{10}$O$_{4}$
813,1.27,,reacts,34.83,Lithium nitride,Li$_{3}$N
,,,,,Scandium(III) hydride,ScH$_{3}$
,,,,,Ethchlorvynol,C$_{7}$H$_{9}$ClO
,,,,,Ravuconazole,C$_{22}$H$_{17}$F$_{2}$N$_{5}$OS
,,,,,EA-3167,C$_{20}$H$_{29}$NO$_{3}$
1539-1565,5.242,,Insoluble,,Iron(III) oxide,Fe$_{2}$O$_{3}$
,,,,,S32212,C$_{25}$H$_{28}$N$_{4}$O$_{2}$
,,,,320,Cetrimonium chloride,C$_{19}$H$_{42}$ClN
,,,,,Mitozolomide,C$_{7}$H$_{7}$ClN$_{6}$O$_{2}$
,,,,,ABT-724,C$_{17}$H$_{19}$N$_{5}$
,,123,,,Valencene,C$_{15}$H$_{24}$
192.1,,,,367.3,Pifithrin,C$_{16}$H$_{19}$BrN$_{2}$OS
,,Decomposes at 600,,3132.2,Ammonium paratungstate,(NH$_{4}$)$_{10}$(H$_{2}$W$_{12}$O$_{42}$)$_{.4}$H$_{2}$O
<25,0.992,196,,,Perilla ketone,C$_{10}$H$_{14}$O$_{2}$
,,,"Slightly soluble in cold, soluble in hot (bright blue)",856.03,Coomassie Brilliant Blue,C$_{47}$H$_{50}$N$_{3}$NaO$_{7}$S$_{2}$(Sodiumsalt)
59-61,1.84,,,,Diphenyl diselenide,C$_{12}$H$_{10}$Se$_{2}$
,2.885,,,,Fluoroantimonic acid,H$_{2}$SbF$_{7}$
,,,,316.26,Nepetin,C$_{16}$H$_{12}$O$_{7}$
60,,135,330,,Acetone oxime,C$_{3}$H$_{7}$NO
,,,,,MDAI,C$_{10}$H$_{11}$NO$_{2}$
621,,1277$\pm$5,44,259.81,Caesium iodide,CsI
-51,1.074,132,Slightly soluble,,Methyl thiocyanate,C$_{2}$H$_{3}$NS
,,,,,Gacyclidine,C$_{16}$H$_{25}$NS
,,,,,Aromadendrin,C$_{15}$H$_{12}$O$_{6}$
,,,,,Methylenedioxyethylamphetamine,C$_{12}$H$_{17}$NO$_{2}$
,,,,,Deleobuvir,C$_{34}$H$_{33}$BrN$_{6}$O$_{3}$
,,,,475.6,Arzoxifene,C$_{28}$H$_{29}$NO$_{4}$S
,,,,,Perampanel,C$_{23}$H$_{15}$N$_{3}$O
,,,,,Pheneticillin,C$_{17}$H$_{20}$N$_{2}$O$_{5}$S
-207.15,,-129.06,0.021,71,Nitrogen trifluoride,NF$_{3}$
,,,,,Phenibut,C$_{10}$H$_{13}$NO$_{2}$
,,458,,,Hentriacontane,C$_{31}$H$_{64}$
1750,4.95,,,63.866,Titanium(II) oxide,TiO
-1,,197.2,reacts,,Benzoyl chloride,C$_{7}$H$_{5}$ClO
,,,,,Calcium sulfate,pKa10.4(anhydrous)
,,,,,Fesoterodine,C$_{26}$H$_{37}$NO$_{3}$
,,,,,Phenicarbazide,C$_{7}$H$_{9}$N$_{3}$O
1480,3.82,,insoluble,155.356,Zirconium disulfide,ZrS$_{2}$
223,,,polar organic solvents,,Shvo catalyst,C$_{62}$H$_{42}$O$_{6}$Ru$_{2}$
,,,,,Toralizumab,C$_{6428}$H$_{9976}$N$_{1720}$O$_{2018}$S$_{42}$
,,,,,Cyanopindolol,C$_{16}$H$_{21}$N$_{3}$O$_{2}$
121.5,2.44,,,350.32,Selenium hexasulfide,Se$_{2}$S$_{6}$
,,,,,Absinthin,C$_{30}$H$_{40}$O$_{6}$
,,,,,Ponazuril,C$_{18}$H$_{14}$F$_{3}$N$_{3}$O$_{6}$S
-1,1.38,232-233,,218.09,Methylcyclopentadienyl manganese tricarbonyl,C$_{9}$H$_{7}$MnO$_{3}$
,,,,,Mazindol,C$_{16}$H$_{13}$ClN$_{2}$O
,,,,,Dexanabinol,C$_{25}$H$_{38}$O$_{3}$
,,,,,Levosimendan,C$_{14}$H$_{12}$N$_{6}$O
17-18,,175-176,56.2$\pm$2.5,,Octamethylcyclotetrasiloxane,C$_{8}$H$_{24}$O$_{4}$Si$_{4}$
,,,,130.25,Tetraethylammonium,C$_{8}$H$_{20}$N+
,,,,,Diallyllysergamide,C$_{22}$H$_{25}$N$_{3}$O
,,,,,Ericolol,C$_{18}$H$_{24}$ClNO$_{3}$
,,,,,Lucanthone,C$_{20}$H$_{24}$N$_{2}$OS
,,,,,BIBP-3226,C$_{27}$H$_{31}$N$_{5}$O$_{3}$
,,,,247.142,Pyridoxal phosphate,C$_{8}$H$_{10}$NO$_{6}$P
,,,,,Beclamide,C$_{10}$H$_{12}$ClNO
,,,,,Farletuzumab,C$_{6466}$H$_{9928}$N$_{1716}$O$_{2020}$S$_{42}$
,,,,416.37,Aleuritin,C$_{21}$H$_{20}$O$_{9}$
51-53,0.842,257,,,Pentadecanoic acid,C$_{15}$H$_{30}$O$_{2}$
decomposes at 600,,,"soluble, (539.2 g/L at 20 $^{\circ}$C)",517.81,Indium(III) sulfate,In$_{2}$(SO$_{4}$)$_{3}$
,,,,,Bexlosteride,C$_{14}$H$_{16}$ClNO
,,,,,JWH-176,C$_{25}$H$_{24}$
,,,,,Amprolium,C$_{14}$H$_{19}$N$^{+}_{4}$.Cl$^{-}$
,,,,,Doramectin,C$_{50}$H$_{74}$O$_{14}$
,,,,,Alacepril,C$_{20}$H$_{26}$N$_{2}$O$_{5}$S
-0.43,1.135,150.2,Miscible,34.0147,Hydrogen peroxide,H$_{2}$O$_{2}$
,,,,271.24,Luteolinidin,C$_{15}$H$_{11}$O$^{+}_{5}$
,,,,222.24,Blattellaquinone,C$_{12}$H$_{14}$O$_{4}$
,,,,284.6,Tebbe's reagent,C$_{13}$H$_{18}$AlClTi
,,,,,Ammonium diethyl dithiophosphate,C$_{4}$H$_{14}$NO$_{2}$PS$_{2}$
,,,,,Cevimeline,C$_{10}$H$_{17}$NOS
,1.146,135,,,Tebupirimfos,Ba(CN)$_{2}$
,,,,,Paeoniflorin,C$_{23}$H$_{28}$O
,,,,248.15,Dichloroisoprenaline,C$_{11}$H$_{15}$Cl$_{2}$NO
83,,306,insoluble,214.216,Diphenyl carbonate,C$_{13}$H$_{10}$O$_{3}$
,,,,,Rasburicase,C$_{1521}$H$_{2381}$N$_{417}$O$_{461}$S$_{7}$
,,,,352.34,Lugduname,C$_{18}$H$_{16}$N$_{4}$O$_{4}$
250,,,insol.,354.886,Platinum(II) bromide,Br$_{2}$Pt
,,,,,Ibutilide,C$_{20}$H$_{36}$N$_{2}$O$_{3}$S
60-63,1.08-1.09,200,,,Cocamide MEA,CH$_{3}$(CH$_{2}$)$_{n}$CONHCH$_{2}$CH$_{2}$OH
,,,,,Iocarmic acid,
,,,1000000,54.123044,Dimefox,C$_{2}$H$_{4}$ClNO
,,,,,Sulfamethizole,C$_{9}$H$_{10}$N$_{4}$O$_{2}$S$_{2}$
830,6.657,,0.0064,462.52,Silver arsenate,Ag$_{3}$AsO$_{4}$
,,,,,Calcium dobesilate,
,,,,,Bismuth(III) acetate,Bi(CH$_{3}$COO)$_{3}$
,,,566,,Tilmicosin,C$_{46}$H$_{80}$N$_{2}$O$_{13}$
,,,,,Diethylcarbamazine,C$_{10}$H$_{21}$N$_{3}$O
1020,,,,439.04,Tungsten(IV) telluride,WTe$_{2}$
,,,,,Prothoate,C$_{9}$H$_{20}$NO$_{3}$PS$_{2}$
,,,,,Pigment yellow 83,C$_{36}$H$_{32}$Cl$_{4}$N$_{6}$O$_{8}$
,,,,,Etafenone,C$_{21}$H$_{27}$NO$_{2}$
,,,,,Proglumetacin,C$_{46}$H$_{58}$ClN$_{5}$O$_{8}$
268,0.666,380,reacts,21.784,Lithium borohydride,LiBH$_{4}$
-2,,142-143,immiscible,104.15,Cyclooctatetraene,C$_{8}$H$_{8}$
80-81,,,,109.1274,Phenylhydroxylamine,C$_{6}$H$_{7}$NO
,,,,,Clomazone,C$_{12}$H$_{14}$ClNO$_{2}$
,,,,,Halometasone,C$_{22}$H$_{27}$ClF$_{2}$O$_{5}$
,,,,,Radafaxine,C$_{13}$H$_{18}$ClNO$_{2}$
,,,,,Acitretin,C$_{21}$H$_{26}$O$_{3}$
,,,,,Caproxamine,C$_{15}$H$_{25}$N$_{3}$O
-57,1.98,90,4.5,163.8,Bromodichloromethane,CHBrCl$_{2}$
46,1.2,,,321.369,Pyriproxyfen,C$_{20}$H$_{19}$NO$_{3}$
,,,,,Phentolamine,C$_{17}$H$_{19}$N$_{3}$O
250,,,1.6,,Folic acid,C$_{19}$H$_{19}$N$_{7}$O$_{6}$
210,1.34,340,,,Chromium(III) acetylacetonate,C$_{15}$H$_{21}$CrO$_{6}$
,1.47,,,,Pentosidine,C$_{17}$H$_{26}$N$_{6}$O$_{4}$
,,,soluble (sodium salt),,Hyaluronan,(C$_{14}$H$_{21}$NO$_{11}$)$_{n}$
42,,116,,206.904,Iodine monobromide,IBr
,,,,,Sertraline,C$_{17}$H$_{17}$Cl$_{2}$N
,,,,,GR-196 429,
,,,,,Sitafloxacin,C$_{19}$H$_{18}$ClF$_{2}$N$_{3}$O$_{3}$
94,,150,,,Cyanuric triazide,C$_{3}$N$_{12}$
,,,,,DPI-287,C$_{31}$H$_{39}$N$_{3}$O$_{2}$
,,,,,SB-699551,C$_{34}$H$_{45}$N$_{3}$O
175,2.228,,reacts with water,443.376,Lead(IV) acetate,Pb(C$_{2}$H$_{3}$O$_{2}$)$_{4}$
116-117,,,Very slightly soluble in water,414.533,Ascorbyl palmitate,C$_{22}$H$_{38}$O$_{7}$
,,,,315.3,Rosinidin,C$_{17}$H$_{15}$O$_{6}$+
,,,,,Bromoacetylalprenololmenthane,C$_{24}$H$_{37}$BrN$_{2}$O$_{3}$
,,,,,Zwittermicin A,C$_{13}$H$_{28}$N$_{6}$O$_{8}$
220-222,,,good,,Trimethylamine N-oxide,C$_{3}$H$_{9}$NO
,,,,,Pipecuronium bromide,
,,,,,A-412 997,
-37,0.995,154,,,Anisole,C$_{7}$H$_{8}$O
,,,,153.09,Disiamylborane,C$_{10}$H$_{23}$B
-70,,156,organic solvents,166.16,Triethyl phosphite,C$_{6}$H$_{15}$O$_{3}$P
,,,,,Dihydrophloroglucinol,C$_{6}$H$_{8}$O$_{3}$
,,,,,N-Phenethylnormorphine,C$_{24}$H$_{25}$NO$_{3}$
,,,,,Rhodionin,C$_{21}$H$_{20}$O
,,,,,Dimethoxanate,C$_{19}$H$_{22}$N$_{2}$O$_{3}$S
195,,410,0.064,,Adamsite,C$_{12}$H$_{9}$AsClN
,,,,,AM-411,C$_{26}$H$_{34}$O$_{2}$
65-73,,,Insoluble,,Glycol distearate,C$_{38}$H$_{74}$O$_{4}$
,,,,809.57,Acetyl-CoA,C$_{23}$H$_{38}$N$_{7}$O$_{17}$P$_{3}$S
,,,,,Laropiprant,C$_{21}$H$_{19}$ClFNO$_{4}$S
43-45,,,,,Halostachine,C$_{9}$H$_{13}$NO
,,,,,Guanosine diphosphate,C$_{10}$H$_{15}$N$_{5}$O$_{11}$P$_{2}$
596,10.45,1080,soluble,424.77,Thallium(I) oxide,Tl$_{2}$O
,,,,820.744,Sialyl-Lewis X,C$_{31}$H$_{52}$N$_{2}$O$_{23}$
,,,CH$_{2}$Cl$_{2}$,,TRISPHAT,(C$_{16}$H$_{36}$N)(C$_{18}$Cl$_{12}$O$_{6}$P)
,,,,288.181,Methyl-DOB,C$_{12}$H$_{18}$BrNO$_{2}$
,,,,369.4,Taspine,C$_{20}$H$_{19}$NO$_{6}$
,,,,,Tropoxane,C$_{15}$H$_{16}$Cl$_{2}$O$_{3}$
,,,,,PARGY-LAD,C$_{22}$H$_{25}$N$_{3}$O
,,,,,Galmic,C$_{51}$H$_{60}$N$_{10}$O
,,,,244.11,Furantetracarboxylic acid,C$_{8}$H$_{4}$O$_{9}$
245,,,,,Ubenimex,C$_{16}$H$_{24}$N$_{2}$O$_{4}$
139.1,1.57,,4.1,,Thiamethoxam,C$_{8}$H$_{10}$ClN$_{5}$O$_{3}$S
,,,,,Sulfonmethane,C$_{7}$H$_{16}$O$_{4}$S$_{2}$
121,,,10,,Phenidone,C$_{9}$H$_{10}$N$_{2}$O
-37,1.038,320,1,278.35,Diisobutyl phthalate,C$_{16}$H$_{22}$O$_{4}$
,,,,,Dimemorfan,C$_{18}$H$_{25}$N
,,,,,Phaseolin (pterocarpan),C$_{20}$H$_{18}$O$_{4}$
-68,0.857,177,23.4,134.21,P-Cymene,C$_{10}$H$_{14}$
,,,,,Dihydrostreptomycin,C$_{21}$H$_{41}$N$_{7}$O$_{12}$
-111.3,,10.7,miscible,,Ethylene oxide,C$_{2}$H$_{4}$O
,,,,,Urtoxazumab,C$_{6414}$H$_{9934}$N$_{1718}$O$_{2010}$S$_{40}$
2050,6.13,,,64.9482,Vanadium nitride,VN
98-101,,,,,TASF reagent,C$_{9}$H$_{27}$F$_{2}$SiSN$_{3}$
102,,,,,Ribitol,C$_{5}$H$_{12}$O$_{5}$
,,,Reacts,,Methylene (compound),CH$^{2.}_{2}$
,,,,,EBC-46,C$_{30}$H$_{42}$O$_{10}$
,,,,,Roxatidine,C$_{19}$H$_{28}$N$_{2}$O$_{4}$
,,,,,Loxtidine,C$_{19}$H$_{29}$N$_{5}$O$_{2}$
107-108,,,141,548.26,Ceric ammonium nitrate,H$_{8}$N$_{8}$CeO$_{18}$
,,,,,Pemirolast,C$_{10}$H$_{8}$N$_{6}$O
,,,,286.23,Norartocarpetin,C$_{15}$H$_{10}$O$_{6}$
,,,,,Pipazetate,C$_{21}$H$_{25}$N$_{3}$O$_{3}$S
,,,,,Caspofungin,C$_{52}$H$_{88}$N$_{10}$O$_{15}$
,,,,,Annamycin,C$_{26}$H$_{25}$IO
,,,,,Amfonelic acid,
,,,,,Vesencumab,C$_{6430}$H$_{9948}$N$_{1708}$O$_{2016}$S$_{48}$
113-115,,,,,Tetramethylazodicarboxamide,C$_{6}$H$_{12}$N$_{4}$O$_{2}$
737,,1670,,,Promethium(III) chloride,PmCl$_{3}$
,,,,,Gabapentin enacarbil,
,,,,,Firocoxib,C$_{17}$H$_{20}$O$_{5}$S
,,,,,Butynamine,C$_{10}$H$_{19}$N
,,,,,IBNtxA,C$_{27}$H$_{29}$IN$_{2}$O$_{4}$
,,,,,Meclocycline,C$_{22}$H$_{21}$ClN$_{2}$O$_{8}$
,,,,300.26,Tectorigenin,C$_{16}$H$_{12}$O$_{6}$
,,,,,AM-2389,C$_{25}$H$_{38}$O$_{3}$
,,,,315.49,Prosopine,C$_{18}$H$_{37}$NO$_{3}$
decomposes at 105,,,,,Lithium citrate,Li$_{3}$C$_{6}$H$_{5}$O$_{7}$
,,203,,,N-Methylphenethylamine,C$_{9}$H$_{13}$N
,,,,,Embramine,C$_{18}$H$_{22}$BrNO
,,,,,Linopirdine,C$_{26}$H$_{21}$N$_{3}$O
,,,,,BAY 60-6583,C$_{19}$H$_{17}$N$_{5}$O$_{2}$S
,,,,,Conivaptan,C$_{32}$H$_{26}$N$_{4}$O$_{2}$
235,,,,1065.62,Hexadecacarbonylhexarhodium,C$_{16}$O$_{16}$Rh$_{6}$
,,,,165.189,Norsalsolinol,C$_{9}$H$_{11}$NO$_{2}$
,,,,470.47,Ampelopsin A,C$_{28}$H$_{22}$O$_{7}$
,,,,,Morinamide,C$_{10}$H$_{14}$N$_{4}$O$_{2}$
,,,,345.32,Hirsutidin,C$_{18}$H$_{17}$O$_{7}$+
115,1.269,,good,75.13,Thioacetamide,C$_{2}$H$_{5}$NS
,,,,416.68,Beta-Tocopherol,C$_{28}$H$_{48}$O$_{2}$
,,,,,Bicyclobutane,C$_{4}$H$_{6}$
,,,,,Cefozopran,C$_{19}$H$_{17}$N$_{9}$O$_{5}$S$_{2}$
,,,Reacts,,Titanium(IV) hydride,TiH$_{4}$
,,,,,Iclaprim,C$_{19}$H$_{22}$N$_{4}$O$_{3}$
,,,,,Bendroflumethiazide,C$_{15}$H$_{14}$F$_{3}$N$_{3}$O$_{4}$S$_{2}$
,0.8,,Insoluble,,Centralite,C$_{17}$H$_{20}$N$_{2}$O
,1.393,,>10,293.32,GYKI-52 466,C$_{17}$H$_{15}$N$_{3}$O$_{2}$
,,,,,Dalbavancin,C$_{88}$H$_{100}$Cl$_{2}$N$_{10}$O$_{28}$
,,,,178.18,Mellein,C$_{10}$H$_{10}$O$_{3}$
255-270,,,Insoluble,1964.31,Alamethicin,C$_{92}$H$_{150}$N$_{22}$O$_{25}$
,,,,,Thiocolchicoside,C$_{27}$H$_{33}$NO$_{10}$S
-13.2,2.77,101,,154.954,Selenium tetrafluoride,SeF$_{4}$
,,,,,Draquinolol,C$_{24}$H$_{30}$N$_{2}$O$_{4}$
151-154,,,,,Alpha-Chlorocodide,C$_{18}$H$_{20}$ClNO$_{2}$
87,,,,,Sodium thioantimoniate,Na$_{3}$SbS$_{4}$.9H$_{2}$O
,,,,,LY-487 379,
,,,,285.3,Coclaurine,C$_{17}$H$_{19}$NO$_{3}$
,,,,,Reverse triiodothyronine,C$_{15}$H$_{12}$I$_{3}$NO$_{4}$
204-205,1.31,250,,130.1,Mesaconic acid,C$_{5}$H$_{6}$O$_{4}$
,,98,,,Furazan,C$_{2}$H$_{2}$N$_{2}$O
,,,,370.57,PB-28,C$_{24}$H$_{38}$N$_{2}$O
849,6.37,,0.00065,,Silver phosphate,Ag$_{3}$PO$_{4}$
,,,,,HU-210,C$_{25}$H$_{38}$O$_{3}$
,,,,,Mevastatin,C$_{23}$H$_{34}$O$_{5}$
,,,,,Bisoprolol,C$_{18}$H$_{31}$NO$_{4}$
,,,,,Hydrocortisone buteprate,
,,,,241.42,Bis-TOM,C$_{12}$H$_{19}$NS$_{2}$
,,,soluble,169.16,Cysteic acid,C$_{3}$H$_{7}$NO$_{5}$S
,,,,,Wikipedia:WikiProject Medicine/Translation task force/RTT/Simple hydrochlorothiazide,
,,,40,,Propane,C$_{3}$H$_{8}$
,,,,558.666,Sulforhodamine B,C$_{27}$H$_{30}$N$_{2}$O$_{7}$S$_{2}$
,,,,,Butaclamol,C$_{25}$H$_{31}$NO
,,,,,Doravirine,C$_{17}$H$_{11}$ClF$_{3}$N$_{5}$O$_{3}$
,,,,,Indanidine,C$_{11}$H$_{13}$N$_{5}$
,2.112,,dihydrate  13,,Sodium sesquicarbonate,Na$_{3}$C$_{2}$O$_{6}$H
,,,negligible,293.41,Nordihydrocapsaicin,C$_{17}$H$_{27}$NO$_{3}$
,,,,,Propenidazole,C$_{11}$H$_{13}$N$_{3}$O$_{5}$
,,,,,Indantadol,C$_{11}$H$_{14}$N$_{2}$O
,,,,,Orphenadrine,C$_{18}$H$_{23}$NO
,,,,,Hydroxymatairesinol,C$_{20}$H$_{22}$O$_{7}$
,,,,398.94,Amavadin,(VNO(CH(CH$_{3}$)CO$_{2}$)$_{2}$)$^{2-}$
,,,,,Triiodothyronine,C$_{15}$H$_{12}$I$_{3}$NO$_{4}$
,,,,,Carazolol,C$_{18}$H$_{22}$N$_{2}$O$_{2}$
,,,,,Diucifon,C$_{22}$H$_{20}$N$_{6}$O$_{10}$S$_{3}$
,,,,,Propicillin,C$_{18}$H$_{22}$N$_{2}$O$_{5}$S
,,,,326.297,Rutinose,C$_{12}$H$_{22}$O$_{10}$
89-91,,256,Soluble,68.077,Imidazole,C$_{3}$H$_{4}$N$_{2}$
,,,,416.3,Tenitramine,C$_{10}$H$_{20}$N$_{6}$O$_{12}$
,,,,,Imafen,C$_{11}$H$_{13}$N$_{3}$
,,,,,Hypobromous acid,HBrO
,,,none,255.19,Melamine cyanurate,C$_{6}$H$_{9}$N$_{9}$O$_{3}$
163,1.69,,,123.068,Urea nitrate,CH$_{5}$N$_{3}$O$_{4}$
,,,,163.239,Ethionine,C$_{6}$H$_{13}$NO$_{2}$S
295,,426.7,,190.2,Diaminopimelic acid,C$_{7}$H$_{14}$N$_{2}$O$_{4}$
,,,,,Imidapril,C$_{20}$H$_{27}$N$_{3}$O$_{6}$
-154,1.45,-57,,,Dioxygen difluoride,O$_{2}$F$_{2}$
,,,,,Clorobiocin,C$_{35}$H$_{37}$ClN$_{2}$O
-92.6,1.5,65.5,,163.433,Diboron tetrachloride,B$_{2}$Cl$_{4}$
,,,,,Tezampanel,C$_{13}$H$_{21}$N$_{5}$O$_{2}$
,8.76,,slightly soluble,146.019,Potassium arsenite,AsKO$_{2}$
,,,,,Florfenicol,C$_{12}$H$_{14}$Cl$_{2}$FNO$_{4}$S
112-114,,,,,Adiphenine,C$_{20}$H$_{25}$NO$_{2}$
42,1.398,,,350.59,Chlorpyrifos,C$_{9}$H$_{11}$Cl$_{3}$NO$_{3}$PS
,,,,250.2,Difucol,C$_{12}$H$_{10}$O$_{6}$
,,,,,Monastrol,C$_{14}$H$_{16}$N$_{2}$O$_{3}$S
,,,,,Pyrazolam,C$_{16}$H$_{12}$BrN$_{5}$
,,,,,Clofenamide,C$_{6}$H$_{7}$ClN$_{2}$O$_{4}$S$_{2}$
,,,,,Chloroethylclonidine,C$_{13}$H$_{17}$Cl$_{3}$N$_{4}$
,,,,,Azimilide,C$_{23}$H$_{28}$ClN$_{5}$O$_{3}$
,,,,,Zalutumumab,C$_{6512}$H$_{10074}$N$_{1734}$O$_{2032}$S$_{46}$
,,,,,Ethoheptazine,C$_{16}$H$_{23}$NO$_{2}$
,,,,,Proxazole,C$_{17}$H$_{25}$N$_{3}$O
,,,,42.98,Aluminium(II) oxide,AlO
,,,,,Ciramadol,C$_{15}$H$_{23}$NO$_{2}$
,,,,,Loteprednol,C$_{24}$H$_{31}$ClO$_{7}$
,,,,,Vanoxerine,C$_{28}$H$_{32}$F$_{2}$N$_{2}$O
,,,,,Acetylide,HC$^{2-}$
-9.4,0.988,105-107,,162.23,Valerophenone,C$_{11}$H$_{14}$O
,,,,,Alaproclate,C$_{13}$H$_{18}$ClNO$_{2}$
,,,,,Orotic acid,
,,,,,Intravenous sodium bicarbonate,
,,,,807.76,Malvidin glucoside-ethyl-catechin,C$_{41}$H$_{43}$O$_{17}$
,,,,,MT-45,C$_{24}$H$_{32}$N$_{2}$
230,1.45,478,0.57,,Allantoin,C$_{4}$H$_{6}$N$_{4}$O$_{3}$
,,,,,WAY-213 613,
,,,,,Crimidine,C$_{7}$H$_{10}$ClN$_{3}$