Property Melting Point,Property Density,Property Boiling Point,Property Solubility,Property Molar Mass,Name,formula
63.5-64,0.9641,198.5,,100.116,Tiglic acid,C$_{5}$H$_{8}$O$_{2}$
,,,,,Befiradol,C$_{20}$H$_{22}$ClF$_{2}$N$_{3}$O
,,,,220.25,S-Nitroso-N-acetylpenicillamine,C$_{7}$H$_{12}$N$_{2}$O$_{4}$S
270,1.7,324,4.5,,Aspartic acid,C$_{4}$H$_{7}$NO$_{4}$
,,,,,Elzasonan,C$_{22}$H$_{23}$Cl$_{2}$N$_{3}$OS
,,,,,Fentonium,C$_{31}$H$_{34}$BrNO$_{4}$
,8.95,,reacts,238.587,Mercury(II) fluoride,HgF$_{2}$
,,,,,Demeclocycline,C$_{21}$H$_{21}$ClN$_{2}$O$_{8}$
,,,,,Sulazepam,C$_{16}$H$_{13}$ClN$_{2}$S
2,1.19,283-284,0.4% (20$^{\circ}$C),194.184,Dimethyl phthalate,C$_{10}$H$_{10}$O$_{4}$
42,,50,Miscible,,Methoxyamine,CNOH$_{5}$
,,,5,,Salutaridine,CH$_{2}$NO$_{2}$
,,,Reacts forming DMSO,,Sodium methylsulfinylmethylide,C$_{2}$H$_{5}$NaOS
,,,,202.22,Calcium bisulfite,Ca(HSO$_{3}$)$_{2}$
212-214,1.24,389,Insoluble,,Terphenyl,C$_{18}$H$_{14}$
,,,,,Sameridine,C$_{21}$H$_{34}$N$_{2}$O
,,,,,Tuataric acid,C$_{8}$H$_{12}$O$_{2}$
,,,Freely soluble or readily dispersible in water,,Maltodextrin,C$_{6n}$H$_{(10n+2)}$O$_{(5n+1)}$
,,,,,Drotaverine,C$_{24}$H$_{31}$NO$_{4}$
,,,,,Azalanstat,C$_{22}$H$_{24}$ClN$_{3}$O$_{2}$S
190,,,decomposes,197.132,Potassium manganate,K$_{2}$MnO$_{4}$
-74.35,0.8411,176,insoluble,,Limonene,C$_{10}$H$_{16}$
,,,,,Violanthrone,C$_{34}$H$_{16}$O$_{2}$
,,,,,Mepenzolate,C21H26NO3charge+
-136,,-52,,,Difluoromethane,CH$_{2}$F$_{2}$
100,1.195,,,,Aldicarb,C$_{7}$H$_{14}$N$_{2}$O$_{2}$S
,,,,,Deptropine,C$_{23}$H$_{27}$NO
,,,,,Lysergic acid 2 4-dimethylazetidide,
-156.1,,,9.3,116.28,Triethylsilane,C$_{6}$H$_{16}$Si
125,,,slightly soluble,99.424,Zinc hydroxide,Zn(OH)$_{2}$
,,,,,JZL195,C$_{24}$H$_{23}$N$_{3}$O$_{5}$
115-120,2.2,,,,Iodobenzene dichloride,C$_{6}$H$_{5}$ICl$_{2}$
,,,,,Rubrosterone,C$_{19}$H$_{26}$O$_{5}$
,,,,,FG-7142,C$_{13}$H$_{11}$N$_{3}$O
,,,,,Dihydroxyphenylglycine,C$_{8}$H$_{9}$NO$_{4}$
,,,,,Oxymorphone,C$_{17}$H$_{19}$NO$_{4}$
,,,,425.314382,Thiamine pyrophosphate,C$_{12}$H$_{19}$N$_{4}$O$_{7}$P$_{2}$S$^{+}$
-7,0.8407,81.4,,70.09,Methyl vinyl ketone,C$_{4}$H$_{6}$O
325,3.15,,Very soluble,,Vanadium tetrafluoride,VF$_{4}$
,,,,,Thiepane,C$_{6}$H$_{12}$S
,,,,,Tenonitrozole,C$_{8}$H$_{5}$N$_{3}$O$_{3}$S$_{2}$
,,,,,Etamiphylline,C$_{13}$H$_{21}$N$_{5}$O$_{2}$
,,,insoluble,380.580722,Copper(II) phosphate,Cu$_{3}$(PO$_{4}$)$_{2}$
,,,,,Cabazitaxel,C$_{45}$H$_{57}$NO$_{14}$
,,,,,Pentolinium,C$_{15}$H$_{32}$N$_{2}$
-167.78,1.538,-57.75,0.03,,Bromotrifluoromethane,CBrF$_{3}$
81-85,,285,Insoluble,168.19,Dibenzofuran,C$_{12}$H$_{8}$O
,,,,,Trihexyphenidyl,C$_{20}$H$_{31}$NO
,,,,,Propachlor,C$_{11}$H$_{14}$ClNO
160,1.509,,37.4,,Calcium acetate,C$_{4}$H$_{6}$O$_{4}$Ca
,,,,,Iopanoic acid,
1036,,1417,Insoluble.,314.02,Uranium tetrafluoride,UF$_{4}$
,,,,,Cyanide,CN$^{-}$
,,,,,Racemic epinephrine,
,,,,,Tolmetin,C$_{15}$H$_{15}$NO$_{3}$
146,,,,,Citropten,C$_{11}$H$_{10}$O$_{4}$
,,,,,Nafimidone,C$_{15}$H$_{12}$N$_{2}$O
,,,,,ABT-418,C$_{9}$H$_{14}$N$_{2}$O
,,,,,Bazedoxifene,C$_{30}$H$_{34}$N$_{2}$O$_{3}$
,,,,,Furethidine,C$_{21}$H$_{31}$NO$_{4}$
,0.92,201,,,Thujone,C$_{10}$H$_{16}$O
,,,,,Orthocarbonic acid,CH$_{4}$O$_{4}$
,,,,111.145,Betazole,C$_{5}$H$_{9}$N$_{3}$
,,,,,Tridihexethyl,C21H36NO1charge+
,,,,298.7,Methylmercuric dicyanamide,C$_{3}$H$_{6}$HgN$_{4}$
,,,,,Etofylline nicotinate,
-66,0.86,188-189,,158.27,Ethyl heptanoate,C$_{9}$H$_{18}$O$_{2}$
,,,,,Rivastigmine,C$_{14}$H$_{22}$N$_{2}$O$_{2}$
106-109,,,,,Phlorizin,C$_{21}$H$_{24}$O$_{10}$
,,,,,Phenylpiracetam,C$_{12}$H$_{14}$N$_{2}$O$_{2}$
270,,,,,Ticlatone,C$_{7}$H$_{4}$ClNOS
,,,soluble (decomposes without stabilisers),,Chromium(VI) oxide peroxide,CrO$_{5}$
174,,,,,Thiambutenes,C$_{12}$H$_{13}$NS$_{2}$
,,,,,Vedaclidine,C$_{13}$H$_{21}$N$_{3}$S$_{2}$
,1.69,,,,Triglycine sulfate,C$_{6}$H$_{17}$N$_{3}$O$_{10}$S
,,,,,Hydroxymethyl,#NAME?
,,,,,Guaiacolsulfonate,C$_{7}$H$_{8}$O$_{5}$S
171-174,,,1.33,150.087,Tartaric acid,C$_{4}$H$_{6}$O$_{6}$(Basicformula)
,,,,,Spirobarbital,C$_{12}$H$_{18}$N$_{2}$O$_{3}$
,,,,,Carpacin,C$_{11}$H$_{12}$O$_{3}$
-135,,8.92,9.42,102.92,Dichlorofluoromethane,CHCl$_{2}$F
,,,,,NS-2664,C$_{20}$H$_{14}$N$_{4}$O
,0.855,225,,,Citronellol,C$_{10}$H$_{20}$O
,,,,,Nedocromil,C$_{19}$H$_{17}$NO$_{7}$
792,2.698,,0.344,161.97,Sodium chromate,Na$_{2}$CrO$_{4}$
,,,,,Tryptophan tryptophylquinone,C$_{22}$H$_{20}$N$_{4}$O$_{6}$
,,,,164.16,M-Coumaric acid,C$_{9}$H$_{8}$O$_{3}$
,,,,,Cycrimine,C$_{19}$H$_{29}$NO
-50,,192-193,,158.24,Heptyl acetate,C$_{9}$H$_{18}$O$_{2}$
,,,,,Niceritrol,C$_{29}$H$_{24}$N$_{4}$O$_{8}$
,,,,,Fingolimod,C$_{19}$H$_{33}$NO$_{2}$
,,,,,CAR-301 060,
,,,,,Farglitazar,C$_{34}$H$_{30}$N$_{2}$O$_{5}$
,,,,,Traxoprodil,C$_{20}$H$_{25}$NO$_{3}$
,,,,,Retapamulin,C$_{30}$H$_{47}$NO$_{4}$S
,,,,,Phenoxypropazine,C$_{9}$H$_{14}$N$_{2}$O
44,,328,0.44,295.36,Pentachloronitrobenzene,C$_{6}$Cl$_{5}$NO$_{2}$
250,0.862,,20,,Ninhydrin,C$_{9}$H$_{6}$O$_{4}$
,,,,,Altretamine,C$_{9}$H$_{18}$N$_{6}$
216,,,0.1,121.93,Phenylboronic acid,C$_{6}$H$_{7}$BO$_{2}$
,,,,183.93,Disodium methyl arsenate,CH$_{3}$AsNa$_{2}$O$_{3}$
-82,,-60,4,,Hydrogen sulfide,H$_{2}$S
>300,1.7,,Pentahydrate form: 92,,Trisodium citrate,Na$_{3}$C$_{6}$H$_{5}$O$_{7}$
,,,,,Solithromycin,C$_{43}$H$_{65}$FN$_{6}$O$_{10}$
-81,0.847,69,,70.09,Methacrolein,C$_{4}$H$_{6}$O
,,,,,Ethynyl radical,C$_{2}$H
,,,,,Zolmitriptan,C$_{16}$H$_{21}$N$_{3}$O$_{2}$
,,,,288.42,Methylestrenolone,C$_{19}$H$_{28}$O$_{2}$
,,,,410.63188,Gamma-Tocotrienol,C$_{28}$H$_{42}$O$_{2}$
,,,,,Propiomazine,C$_{20}$H$_{24}$N$_{2}$OS
-11.5,,197,4.1,,Diethylene glycol dinitrate,C$_{4}$H$_{8}$N$_{2}$O$_{7}$
,,,,,Tyloxapol,chemical_formula(C$_{15}$H$_{21}$O(C$_{2}$H$_{4}$O)$_{m}$)$_{n}$
< 25,1.1452,213-213.5,,124.16,Ethyl methanesulfonate,CH$_{3}$SO$_{3}$C$_{2}$H$_{5}$
,,,,171.02,Perfluoroethanamine,C$_{24}$H$_{46}$O$_{6}$
81,,208,,,Iodoacetic acid,C$_{2}$H$_{3}$IO$_{2}$
,,,,,Lysergic acid diethylamide,
1800,2.36,,,41.077,Beryllium sulfide,BeS
,,,,,Nelotanserin,C$_{18}$H$_{15}$BrF$_{2}$N$_{4}$O$_{2}$
,,,,,Flavokavain C,C$_{17}$H$_{16}$O$_{5}$
,,,,,AH-7921,C$_{16}$H$_{22}$Cl$_{2}$N$_{2}$O
290,,,,288.78,Neutral red,C$_{15}$H$_{17}$ClN$_{4}$
,,,,,Altrenogest,C$_{21}$H$_{26}$O$_{2}$
,,,,,Diflunisal,C$_{13}$H$_{8}$F$_{2}$O$_{3}$
,,,,,Corrin,C$_{19}$H$_{22}$N$_{4}$
,,,,,Indoprofen,C$_{17}$H$_{15}$NO$_{3}$
12-Oct,0.9952,138,,,Pyrazolidine,C$_{3}$H$_{8}$N$_{2}$
,,,,,LSM-775,C$_{20}$H$_{23}$N$_{3}$O$_{2}$
,,,,,Amrinone,C$_{10}$H$_{9}$N$_{3}$O
,,,,,Oxaliplatin,C$_{8}$H$_{14}$N$_{2}$O$_{4}$Pt
,,,,,Nicomorphine,C$_{29}$H$_{25}$N$_{3}$O$_{5}$
375,1.178,430,reacts,22.96,Lithium amide,LiNH$_{2}$
,,,,,Methylthiouracil,C$_{5}$H$_{6}$N$_{2}$OS
,,,,163.56,Iceane,C$_{12}$H$_{18}$
,,,,,Physostigmine,C$_{15}$H$_{21}$N$_{3}$O$_{2}$
,,,,,Terbutaline,C$_{12}$H$_{19}$NO$_{3}$
,,,,,Hyaluronidase,C$_{2455}$H$_{3775}$N$_{617}$O$_{704}$S$_{2}$
153-157,1.1,,1,444.56,Dioctyl sodium sulfosuccinate,C$_{20}$H$_{37}$NaO$_{7}$S
,,,,174.2,Methanesulfonic anhydride,C$_{2}$H$_{6}$O$_{5}$S$_{2}$
1555,8.9,2837,very soluble,150.73,Nickel(II) nitrite,Ni(NO$_{2}$)$_{2}$
160,1.073,,Soluble,32.959,Lithium cyanide,HNO$_{4}$
,,150,almost insoluble in water,,Cyclopentenone,C$_{5}$H$_{6}$O
,$\alpha$-form: 5.584,570,67,312.7421,Cobalt(II) iodide,CoI$_{2}$
1325,,,0.04642,,Cadmium tungstate,CdWO$_{4}$
,,,,,Aprobarbital,C$_{10}$H$_{14}$N$_{2}$O$_{3}$
,,,,,Darapladib,C$_{36}$H$_{38}$F$_{4}$N$_{4}$O$_{2}$S
,,,,,Fananserin,C$_{23}$H$_{24}$FN$_{3}$O$_{2}$S
,,,,441.47368,Platensimycin,C$_{24}$H$_{27}$NO$_{7}$
,,,,,Prulifloxacin,C$_{21}$H$_{20}$FN$_{3}$O$_{6}$S
,,,,,Panipenem,C$_{15}$H$_{21}$N$_{3}$O$_{4}$S
,,,,329.3,Fluridone,C$_{19}$H$_{14}$F$_{3}$NO
1185,4.09,,negligible,97.474,Zinc sulfide,ZnS
,,,,,Hydroxocobalamin,C$_{62}$H$_{89}$CoN$_{13}$O$_{15}$P
,,,,,Uridine diphosphate,C$_{9}$H$_{14}$N$_{2}$O$_{12}$P$_{2}$
,,,,398.072,Calcium arsenate,Ca$_{3}$As$_{2}$O$_{8}$
2.3,,17.1,Hydrolyzes,297.83,Tungsten hexafluoride,WF$_{6}$
,,,,,Bisphenol A diglycidyl ether,C$_{21}$H$_{24}$O$_{4}$
159-161,,,,,Glucuronic acid,C$_{6}$H$_{10}$O$_{7}$
,,,,358.349,Phosphopantetheine,C$_{11}$H$_{23}$N$_{2}$O$_{7}$PS
208-210,,,,,Zeatin,C$_{10}$H$_{13}$N$_{5}$O
,,,,,Xenon hexafluoroplatinate,Xe$^{+}$(PtF$_{6}$)$^{-}$
,,,,,Perinone,C$_{26}$H$_{12}$N$_{4}$O$_{2}$
,,,,,Quinolacetic acid,C$_{8}$H$_{8}$O$_{4}$
,,,,,Sorivudine,C$_{11}$H$_{13}$BrN$_{2}$O$_{6}$
,,,,237.25,Ethopabate,C$_{12}$H$_{15}$NO$_{4}$
16,,172,,,Dimethyl dicarbonate,C$_{4}$H$_{6}$O$_{5}$
199-199.5,,,,416.64,Sarsasapogenin,C$_{27}$H$_{44}$O$_{3}$
-80,,,,,Diazene,H$_{2}$N$_{2}$
,,,,,Lorcaserin,C$_{11}$H$_{14}$ClN
,,,,,Cortivazol,C$_{32}$H$_{38}$N$_{2}$O$_{5}$
,,,,,Ethisterone,C$_{21}$H$_{28}$O$_{2}$
,,,,,Methional,C$_{4}$H$_{8}$OS
172,,,,338.35,Curcuminoid,C$_{20}$H$_{18}$O$_{5}$
,,,,,ZD6126,C$_{20}$H$_{24}$NO$_{8}$P
,,280,Insoluble,186.19,Diphenylphosphine,C$_{12}$H$_{11}$P
,,,,,Pyritinol,C$_{16}$H$_{20}$N$_{2}$O$_{4}$S$_{2}$
,,,,,Suxethonium chloride,
,,,,,BRL-44408,C$_{13}$H$_{17}$N$_{3}$
,,,,,Blinatumomab,C$_{2367}$H$_{3577}$N$_{649}$O$_{772}$S$_{19}$
150,1.48,315,42,104.061,Sodium bisulfite,NaHSO$_{3}$
,,,,,WAY-208 466,
83-84,1.45,339.4,,,Phenylsulfinic acid,C$_{6}$H$_{6}$O$_{2}$S
,,,,277.28,Queuine,C$_{12}$H$_{15}$N$_{5}$O$_{3}$
,,,,,Dropropizine,C$_{13}$H$_{20}$N$_{2}$O$_{2}$
2531,4.7,3200,"reacts, forms Sr(OH)$_{2}$",103.619,Strontium oxide,SrO
162-163,,,,,Fentiazac,C$_{17}$H$_{12}$ClNO$_{2}$S
,,,,,Oxantel,C$_{13}$H$_{16}$N$_{2}$O
,,,,,Para-Methoxyamphetamine,C$_{10}$H$_{15}$NO
,,,,,Lovastatin,C$_{24}$H$_{36}$O$_{5}$
,,,,,Ecgonidine,C$_{9}$H$_{13}$NO$_{2}$
,,,,,Benzocaine,C$_{9}$H$_{11}$NO$_{2}$
,,,,,Nortriptyline,C$_{19}$H$_{21}$N
,,,,,Trimethobenzamide,C$_{21}$H$_{28}$N$_{2}$O$_{5}$
,,,,266.28,NBD-TMA,C$_{11}$H$_{16}$N$_{5}$O$^{+}_{3}$
,,,,,PHA-57378,C$_{14}$H$_{16}$N$_{2}$O
124-127,,,Decomposes,569.57,Diphosphorus tetraiodide,P$_{2}$I$_{4}$
,,,,,Nystatin,C$_{47}$H$_{75}$NO$_{17}$
,,,,497.56,Dexamethasone isonicotinate,C$_{28}$H$_{32}$FNO$_{6}$
72,1.03,Decomposes at >100,,,Phosmet,C$_{11}$H$_{12}$NO$_{4}$PS$_{2}$
,,,,,LY-320 135,
,,,22.7,,Methane,CH$_{4}$
215.5,,,insol.,568.88,Zeaxanthin,C$_{40}$H$_{56}$O$_{2}$
,,,,,Gabexate,C$_{16}$H$_{23}$N$_{3}$O$_{4}$
197,,250,1666.6,,Chromic acid,H$_{2}$CrO$_{4}$
,,,,19.02,Hydronium,H$_{3}$O$^{+}$
,,,,311.29,Dhurrin,C$_{14}$H$_{17}$NO$_{7}$
,,,,,Vicenistatin,C$_{30}$H$_{48}$N$_{2}$O$_{4}$
,,,Soluble to 100,,NBQX,C$_{12}$H$_{8}$N$_{4}$O$_{6}$S
,,,,,Salvinorin B methoxymethyl ether,
,,,,,Thiocyanate,C$_{6}$H$_{14}$O$_{6}$
,,,,,Carboprost,C$_{21}$H$_{36}$O$_{5}$
,1.05,69-70,,69.06,Oxazole,C$_{7}$H$_{6}$N$_{2}$
,,,,,Ipsapirone,C$_{19}$H$_{23}$N$_{5}$O$_{3}$S
175,,,,,Catechin,C$_{15}$H$_{14}$O$_{6}$
,,,,464.63,Ecdysone,C$_{27}$H$_{44}$O$_{6}$
,,,,,Israpafant,C$_{28}$H$_{29}$ClN$_{4}$S
ca. 3250,10.5,,,200.11,Hafnium diboride,HfB$_{2}$
,2,,2.5,,Potassium hydrogenoxalate,C$_{2}$HKO$_{4}$
,,,,628,Squalamine,C$_{34}$H$_{65}$N$_{3}$O$_{5}$S
,,,,,Ifoxetine,C$_{13}$H$_{19}$NO$_{2}$
-15,,55.7,,114.827,Trimethylgallium,Ga(CH$_{3}$)$_{3}$
,,,,,Flutrimazole,C$_{22}$H$_{16}$F$_{2}$N$_{2}$
,,,,,Methazolamide,C$_{5}$H$_{8}$N$_{4}$O$_{3}$S$_{2}$
627,3.05,,Reacts,,Zirconium(III) chloride,ZrCl$_{3}$
,,,,,Aciclovir,C$_{8}$H$_{11}$N$_{5}$O$_{3}$
,,,,304.29,Meciadanol,C$_{16}$H$_{16}$O$_{6}$
,,,,284.26348,Parietin,C$_{16}$H$_{12}$O$_{5}$
22-25,1.113,259,low,,Anisyl alcohol,C$_{8}$H$_{10}$O$_{2}$
,,,,,Tiabendazole,C$_{10}$H$_{7}$N$_{3}$S
,,120,high,,Heptafluorobutyric acid,C$_{4}$HF$_{7}$O$_{2}$
,,,,,Fluotracen,C$_{21}$H$_{24}$F$_{3}$N
,,,,,Metapramine,C$_{16}$H$_{18}$N$_{2}$
199-201.5,,,,,Furonazide,C$_{12}$H$_{11}$N$_{3}$O$_{2}$
,,,,,Ceftriaxone,C$_{18}$H$_{18}$N$_{8}$O$_{7}$S$_{3}$
,,,,,Simfibrate,C$_{23}$H$_{26}$Cl$_{2}$O$_{6}$
decomposes at 250,4.44,,,322.268,Hydrindantin,C$_{18}$H$_{10}$O$_{6}$
,,,,,Furfenorex,C$_{15}$H$_{19}$NO
550,1.893,,11.6,65.01,Sodium cyanate,NaOCN
200-251,,,,,Palladium(II) acetylacetonate,PdC$_{10}$H$_{14}$O$_{4}$
,,,,,Thiamine mononitrate,C$_{12}$H$_{17}$N$_{5}$O$_{4}$S
98-99,,,,,Lanostane,C$_{30}$H$_{54}$
-25,,181.6,Insoluble,,Indene,C$_{9}$H$_{8}$
,,,,286.27,Sakuranetin,C$_{16}$H$_{14}$O$_{5}$
,,70-72,,,Ethyl decadienoate,C$_{12}$H$_{20}$O$_{2}$
,,,,,Trimedoxime bromide,
,,,,,Haloxazolam,C$_{17}$H$_{14}$BrFN$_{2}$O$_{2}$
-16.2,,130.2,decomposes,181.28,Arsenic trichloride,AsCl$_{3}$
,,,,147.13,Indole-5 6-quinone,C$_{8}$H$_{5}$NO$_{2}$
,,,,,Carisoprodol,C$_{12}$H$_{24}$N$_{2}$O$_{4}$
300,,,,,Aurintricarboxylic acid,C$_{22}$H$_{14}$O$_{9}$
,,,,,Gramicidin B,
,,,,106.92,Arsenic dioxide,AsO$_{2}$(As$_{2}$O$_{4}$)
,,,,,Silicon oxynitride,OSi$_{2}$N$_{2}$
,,,,,Sucralfate,C$_{12}$H$_{54}$Al$_{16}$O$_{75}$S$_{8}$
,,,,,Hepzidine,C$_{21}$H$_{25}$NO
,,,,,Sarpogrelate,C$_{24}$H$_{31}$NO$_{6}$
,,,,166.13,Xylonic acid,C$_{5}$H$_{10}$O$_{6}$
~2320,,,,337.824,Promethium(III) oxide,Pm$_{2}$O$_{3}$
,,,,,Psi-Tectorigenin,C$_{16}$H$_{12}$O$_{6}$
,,,,,Arabinofuranosylcytosine triphosphate,C$_{9}$H$_{16}$N$_{3}$O$_{14}$P$_{3}$
,,,,,Vatalanib,C$_{20}$H$_{15}$ClN$_{4}$
,,,"very soluble, hygroscopic",,Copper(II) triflate,CuF$_{6}$O$_{6}$C$_{2}$S$_{2}$
,1.549,,,,Quinoxalinedione,C$_{8}$H$_{6}$N$_{2}$O$_{2}$
,,,,,Pigment Red 29,C$_{24}$H$_{10}$N$_{2}$O$_{4}$
,,,,,Ormeloxifene,C$_{30}$H$_{35}$NO$_{3}$
170,,,Insoluble,,Benzanthrone,C$_{17}$H$_{10}$O
,,,,,Benzilone,C$_{22}$H$_{28}$NO$_{3}$
,,,,,Metopon,C$_{18}$H$_{21}$NO$_{3}$
,,,Soluble in water,568.42,TPPTS,P(C$_{6}$H$_{4}$SO$_{3}$Na)$_{3}$
,,,,,Acetiromate,C$_{15}$H$_{9}$I$_{3}$O$_{5}$
,11.1,,,269,Neptunium(IV) oxide,NpO$_{2}$
,,,,464.37,Spiraeoside,C$_{21}$H$_{20}$O$_{12}$
300,1.522,,0.0017,166.13,Terephthalic acid,C$_{8}$H$_{6}$O$_{4}$
,,,,,Anisodine,C$_{17}$H$_{21}$NO$_{5}$
,,,,,Rural life in the People's Republic of China,NH$_{3}$
,,,,237.295,Methylenedioxymethoxyethylamphetamine,C$_{13}$H$_{19}$NO$_{3}$
,,,,196.2,Sparassol,C$_{10}$H$_{12}$O$_{4}$
,,,,,Deramciclane,C$_{20}$H$_{31}$NO
,,,,,Suplatast tosilate,
,,,,,Metixene,C$_{20}$H$_{23}$NS
-96.7,1.3266,39.6,25.6,,Dichloromethane,CH$_{2}$Cl$_{2}$
,,,,1664.884,Alpha-Melanocyte-stimulating hormone,C$_{77}$H$_{109}$N$_{21}$O$_{19}$S
,,,,,DPA-713,C$_{21}$H$_{26}$N$_{4}$O$_{2}$
-46.8,,60.1,Reacts with water,63.12,Pentaborane,B$_{5}$H$_{9}$
,,,,,Neurotensin,C$_{78}$H$_{121}$N$_{21}$O$_{20}$
34,2.89,117,,291.71,Chromium pentafluoride,CrF$_{5}$
,,,,,Tipepidine,C$_{15}$H$_{17}$NS$_{2}$
,,,,,SL-651 498,
552,,,Decomposes,237.752,Molybdenum tetrachloride,Cl$_{4}$Mo
,,,,,Aspergillomarasmine A,C$_{10}$H$_{17}$N$_{3}$O$_{8}$
,,,,,Azaperone,C$_{19}$H$_{22}$FN$_{3}$O
,0.947,,reacts with water,224.19,Tetrakis(dimethylamido)titanium,C$_{8}$H$_{24}$N$_{4}$Ti
,,,,566.302,Uridine diphosphate galactose,C$_{15}$H$_{24}$N$_{2}$O$_{17}$P$_{2}$
,,,,,JWH-249,C$_{21}$H$_{22}$BrNO
188,1.19,458.4,,,Cyclorphan,C$_{20}$H$_{27}$NO
,,,,,Trans-Resveratrol-3-O-glucuronide,C$_{20}$H$_{20}$O$_{9}$
,,,,,Tetracarbon dioxide,C$_{4}$O$_{2}$
-68.74,1.483,57.65,Reaction,169.9,Silicon tetrachloride,SiCl$_{4}$
,,,,,L-733 060,
1380,2.564,,90,212.27,Tripotassium phosphate,K$_{3}$PO$_{4}$
,,,,897.68,Cinnamoyl-CoA,C$_{30}$H$_{42}$N$_{7}$O$_{17}$P$_{3}$S
,,,,,Pinacidil,C$_{13}$H$_{19}$N$_{5}$
,,,,,SX-3228,C$_{18}$H$_{18}$N$_{4}$O$_{3}$
,,,,,Trichloro(chloromethyl)silane,CH$_{2}$Cl$_{4}$Si
,,,,544.6,Scytonemin,C$_{36}$H$_{20}$N$_{2}$O$_{4}$
,,,,,Guaifenesin,C$_{10}$H$_{14}$O$_{4}$
,,341.2,,,Methylenomycin A,C$_{9}$H$_{10}$O$_{4}$
,,,71,,Dimethyl ether,C$_{2}$H$_{6}$O
,,,,,Methyltestosterone,C$_{20}$H$_{30}$O$_{2}$
298,1.316,,soluble,,Valine,C$_{5}$H$_{11}$NO$_{2}$
20.2,1.19,,,84.17,Deuterated DMSO,C$_{2}$D$_{6}$OS
,,,,,Ritodrine,C$_{17}$H$_{21}$NO$_{3}$
-86,,38,,,Trimethylphosphine,C$_{3}$H$_{9}$P
,,,,,Tert-Butyl bromide,C$_{4}$H$_{9}$Br
,,,,,UMB66,C$_{3}$H$_{5}$ClO$_{2}$
,,,,414.75,Dammarane,C$_{30}$H$_{54}$
,,,,286.23,Aureusidin,C$_{15}$H$_{10}$O$_{6}$
106,,,,86.136,Piperazine,C$_{4}$H$_{10}$N$_{2}$
,,,,163.22,Pyridinylpiperazine,C$_{9}$H$_{13}$N$_{3}$
,,,,450.7,Phylloquinone,C$_{31}$H$_{46}$O$_{2}$
-101.1,,22.8,Insoluble,209.82,Dibromodifluoromethane,CBr$_{2}$F$_{2}$
,,,Reacts,,Krypton difluoride,KrF$_{2}$
,,,,,NE-100,C$_{23}$H$_{33}$NO$_{2}$
,,,,,Lysergic acid 3-pentyl amide,
,,,,,Cosmomycin B,C$_{40}$H$_{53}$NO$_{14}$
,,,,,JWH-164,C$_{25}$H$_{25}$NO$_{2}$
250,,442,,,Acetyllysine,C$_{8}$H$_{16}$N$_{2}$O$_{3}$
,,,,,Atamestane,C$_{20}$H$_{26}$O$_{2}$
,,,,,AMG-36,C$_{27}$H$_{40}$O$_{2}$
,,,,,Regorafenib,C$_{17}$H$_{19}$N
148,1.65,,,,N-Chlorosuccinimide,C$_{4}$H$_{4}$ClNO$_{2}$
1.5,0.9225,176-177,,154.249,Eucalyptol,C$_{10}$H$_{18}$O
,,,,,Benzylpenicillin,C$_{16}$H$_{25}$NO$_{9}$
-58,,93,,,Thioacetic acid,C$_{2}$H$_{4}$OS
50-60,,,,,Bongkrek acid,C$_{28}$H$_{38}$O$_{7}$
,,,soluble,,L-Arginine ethyl ester,C$_{8}$H$_{18}$N$_{4}$O$_{2}$
,,,,,Tedalinab,C$_{19}$H$_{21}$F$_{2}$N$_{3}$O
160,4.42,356.6,slightly soluble,284.624,Mercury(II) fulminate,C$_{2}$N$_{2}$O$_{2}$Hg
,,,,,Pazufloxacin,C$_{16}$H$_{15}$FN$_{2}$O$_{4}$
51,1.87,52,insoluble,341.95,Dicobalt octacarbonyl,Co$_{2}$(CO)$_{8}$
,,,,,Astemizole,C$_{28}$H$_{31}$FN$_{4}$O
,,,,322.26,Leucodelphinidin,C$_{15}$H$_{14}$O$_{8}$
,,,,955.154,Deltorphin,C$_{44}$H$_{62}$N$_{10}$O$_{10}$S$_{2}$
,,,,364.4,POPOP,C$_{24}$H$_{16}$N$_{2}$O$_{2}$
,,,,,Midodrine,C$_{12}$H$_{18}$N$_{2}$O$_{4}$
,,117.9,,181.832,Trichloroacetyl chloride,C$_{2}$Cl$_{4}$O
,,,,,Lorcainide,C$_{22}$H$_{27}$ClN$_{2}$O
,,,,,Butoconazole,C$_{19}$H$_{17}$Cl$_{3}$N$_{2}$S
40-43,,281,organic solvents,,Veratraldehyde,C$_{9}$H$_{10}$O$_{3}$
,,,,,Doxpicomine,C$_{12}$H$_{18}$N$_{2}$O$_{2}$
,,,,,Myrophine,C$_{38}$H$_{51}$NO$_{4}$
,,,,,Propantheline bromide,
622,2.52,,14.5,367.864,Sodium triphosphate,Na$_{5}$P$_{3}$O$_{10}$
,,,,,Methoxetamine,C$_{15}$H$_{21}$NO$_{2}$
,,,,282.46,Elaidic acid,C$_{18}$H$_{34}$O$_{2}$
,,,,,Suprofen,C$_{14}$H$_{12}$O$_{3}$S
,,,,,Insulin lispro,
172.5,,249,"Insoluble in water, soluble in most organic solvents",186.04,Ferrocene,C$_{10}$H$_{10}$Fe
,,,,302.331,Methidathion,C$_{6}$H$_{11}$N$_{2}$O$_{4}$PS$_{3}$
,,,,,Clobenzepam,C$_{17}$H$_{18}$ClN$_{3}$O
,,,,514.65,Stigmatellin,C$_{30}$H$_{42}$O$_{7}$
,,,,,Flumetasone,C$_{22}$H$_{28}$F$_{2}$O$_{5}$
,,,,,O-1125,C$_{26}$H$_{39}$NO$_{3}$
,,,,159.188,Immethridine,C$_{9}$H$_{9}$N$_{3}$
,,,,,Ethinyl estradiol,
,5.8,,,466.516,Indium(III) selenide,In$_{2}$Se$_{3}$
,,,,,Amrubicin,C$_{25}$H$_{25}$NO$_{9}$
,,,,64.06,Ammonium nitrite,NH$_{4}$NO$_{2}$
,,,Decomposes in water to yellow mercuric subsulfate and sulfuric acid,296.653,Mercury(II) sulfate,HgSO$_{4}$
,,,,,Sulfisomidine,C$_{12}$H$_{14}$N$_{4}$O$_{2}$S
953,,,very soluble,173.58,Sodium telluride,Na$_{2}$Te
,,,,140.14,Dimiracetam,C$_{6}$H$_{8}$N$_{2}$O$_{2}$
350,3.76,,,49.88,Titanium hydride,TiH$_{2-x}$
,,,,,Thiocyanogen,C$_{2}$N$_{2}$S$_{2}$
,,,,282.38,Cannabivarin,C$_{19}$H$_{22}$O$_{2}$
,,,,,SCH-202 596,
,,,,453.71,Tritellurium dichloride,Te$_{3}$Cl$_{2}$
,,,,,Darglitazone,C$_{23}$H$_{20}$N$_{2}$O$_{4}$S
,,,,,Heptanitrocubane,C$_{8}$HN$_{7}$O$_{14}$
,,,,,Capreomycin,C$_{25}$H$_{44}$N$_{14}$O$_{8}$
,,101-102,,,Cyclopropanol,CH$_{3}$N$_{3}$
,,69,,,Phytane,C$_{20}$H$_{42}$
,,,,,Isothiazolinone,C$_{3}$H$_{3}$NOS
200,,,,288.213,Orotidine,C$_{10}$H$_{12}$N$_{2}$O$_{8}$
95-96,1.58,135-145,0.0006% (20$^{\circ}$C),373.32,Heptachlor,C$_{10}$H$_{5}$Cl$_{7}$
,,,,148.2,Butyrophenone,C$_{10}$H$_{12}$O
,,50,,,Bromodifluoroacetyl chloride,C$_{2}$OF$_{2}$BrCl
,,,,,Chlorprothixene,C$_{18}$H$_{18}$ClNS
710,,,insoluble,654.8,Bismuth selenide,Bi$_{2}$Se$_{3}$
836,4.23,1676,,101.543,Copper(II) fluoride,CuF$_{2}$
,,,,,Alprenoxime,C$_{15}$H$_{22}$N$_{2}$O$_{2}$
,,,,,Boroxine,B$_{3}$H$_{3}$O$_{3}$
sublimes at 191.4,,,decomposes in water,220.771,Selenium tetrachloride,SeCl$_{4}$
,,,,,Ivermectin,C48H74O14(22.23-dihydroavermectinB$_{1a}$)
-7,,155-156,Practically insoluble in water,136.24,Pinene,C$_{10}$H$_{16}$
,1.005,62-64,,106.12,Diethyl ether peroxide,C$_{4}$H$_{10}$O$_{3}$
,,,,153.886,Aluminium monoiodide,AlI
,,,,,Desflurane,C$_{3}$H$_{2}$F$_{6}$O
,,,,427.971,Uranium phosphate,UP$_{2}$O$_{8}$
,,,,,Dapiprazole,C$_{19}$H$_{27}$N$_{5}$
,,,,,Miquelianin,C$_{21}$H$_{18}$O$_{13}$
,,,,,Psymberin,C$_{32}$H$_{49}$NO
257,,,,,Chelidonic acid,C$_{7}$H$_{4}$O$_{6}$