Property Melting Point,Property Density,Property Boiling Point,Property Solubility,Property Molar Mass,Name,formula
316,,335,,,Thymine,C$_{5}$H$_{6}$N$_{2}$O$_{2}$
,,,,286.23,Isoscutellarein,C$_{15}$H$_{10}$O$_{6}$
,,,,449.52388,Glisoxepide,C$_{20}$H$_{27}$N$_{5}$O$_{5}$S
-22,,54-56,,125.13,Ethyl cyanoacrylate,C$_{6}$H$_{7}$NO$_{2}$
-10,,10,,,Diacetylene,C$_{4}$H$_{2}$
,,,,,Chlorophetanol,C$_{8}$H$_{9}$ClO$_{2}$
,,,,,Hexanitrohexaazaisowurtzitane,C$_{6}$N$_{12}$H$_{6}$O$_{12}$
75,,205,,,Indolizine,C$_{8}$H$_{7}$N
,,,,,Dapoxetine,C$_{21}$H$_{23}$NO
,,,,134.09,Diglycolic acid,C$_{4}$H$_{6}$O$_{5}$
90,,315,Miscible,,Phthalazine,C$_{8}$H$_{6}$N$_{2}$
-62,,81,,,Trimethylstibine,C$_{3}$SbH$_{9}$
,,,,,Naftopidil,C$_{24}$H$_{28}$N$_{2}$O$_{3}$
,,,,316.48,Calusterone,C$_{21}$H$_{32}$O$_{2}$
,,,,,HYDIA,C$_{8}$H$_{11}$NO$_{5}$
,,,,738.87,CataCXium F sulf,C$_{34}$H$_{43}$O$_{10}$PS$_{3}$
,,,,,Menitrazepam,C$_{16}$H$_{17}$N$_{3}$O$_{3}$
,,,,,White-Chen catalyst,C$_{24}$H$_{32}$F$_{12}$FeN$_{6}$Sb$_{2}$
,,,,,Desaspidin,C$_{24}$H$_{30}$O$_{8}$
220,,,,211.26,Brooker's merocyanine,C$_{14}$H$_{13}$NO
-132.8,,-87.7,31.2,33.99758,Phosphine,PH$_{3}$
-20,1.26,,Insoluble,456.2,Dioxathion,C$_{12}$H$_{26}$O$_{6}$P$_{2}$S$_{4}$
,,,,420.096,Inositol trisphosphate,C$_{6}$H$_{15}$O$_{15}$P$_{3}$
,,,,,Acetolactone,C$_{2}$H$_{2}$O$_{2}$
490,,,reacts with water,110.196,Potassium peroxide,K$_{2}$O$_{2}$
,,,,,Norethandrolone,C$_{20}$H$_{30}$O$_{2}$
38.5,,148,,199.27,Trimethyltin chloride,C$_{3}$H$_{9}$SnCl
,,,,594.6768,Pyrantel pamoate,C$_{34}$H$_{30}$N$_{2}$O$_{6}$S
>210,,,,,Decamethylcobaltocene,C$_{20}$H$_{30}$Co
,,,,,Gamma-Amino-$\beta$-hydroxybutyric acid,C$_{4}$H$_{9}$NO$_{3}$
,,,,,Technetium (99mTc) exametazime,
,,,,,EMD-386088,C$_{14}$H$_{14}$ClN$_{2}$
,,,,,Hexasulfur,S$_{6}$
256-264,1.985,,,348.1,Hexanitrobenzene,C$_{6}$N$_{6}$O$_{12}$
,,,,,Phencyclamine,C$_{15}$H$_{23}$N
146,,,,,Lactitol,C$_{12}$H$_{24}$O
,,,,,Prorenone,C$_{23}$H$_{30}$O$_{3}$
,,,,,Triplet oxygen,O$_{2}$
,,,,,Dimethyl sulfide,C$_{2}$H$_{6}$S
-16,,-12,,,Methyl nitrite,CH$_{3}$NO$_{2}$
163,,,40,,Benzethonium chloride,C$_{27}$NH$_{42}$O$_{2}$Cl
,,,,182.3,Potassium 2-ethylhexanoate,C$_{8}$H$_{15}$KO$_{2}$
120-125,,,Miscible,180.03,Sodium monothiophosphate,Na$_{3}$PO$_{3}$S
,,,,424.49,Riccardin C,C$_{28}$H$_{24}$O$_{4}$
,,,,,Clobenzorex,C$_{16}$H$_{18}$ClN
,,,,,LP-211,C$_{30}$H$_{34}$N$_{4}$O
,,,,,Povidone-iodine,chemical_formula(C$_{6}$H$_{9}$NO)$_{n}$$\cdot$xI
,,,,,Peginterferon alfa-2a,
225-226,1.263,,,,Potassium ethyl xanthate,C$_{3}$H$_{5}$OS$_{2}$K
,,,not soluble,564.69,Pentabromodiphenyl ether,C$_{12}$H$_{5}$Br$_{5}$O
,,,,,Eburnamine,C$_{19}$H$_{24}$N$_{2}$O
,,,,,Diethylstilbestrol,C$_{18}$H$_{20}$O$_{2}$
246,,,,,Trichloroisocyanuric acid,C$_{3}$Cl$_{3}$N$_{3}$O$_{3}$
,,99,slightly soluble,,Amyl nitrite,C$_{5}$H$_{11}$NO$_{2}$
,,,,,Oxycodone,C$_{18}$H$_{21}$NO$_{4}$
,,,,470.16,Dibrompropamidine,C$_{17}$H$_{18}$Br$_{2}$N$_{4}$O$_{2}$
,,,,,Insulin glargine,
,,,,,Falipamil,C$_{24}$H$_{32}$N$_{2}$O$_{5}$
,,,,,Estradiol,C$_{18}$H$_{24}$O$_{2}$
,,,,,Carbonate,CO$^{2-}_{3}$
102-105,,,,121.2,Tert-Butanesulfinamide,(CH$_{3}$)$_{3}$CS(O)NH$_{2}$
,,,,,Cofactor F430,C$_{42}$H$_{51}$N$_{6}$NiO$^{3-}$
,,,,,Formoterol,C$_{19}$H$_{24}$N$_{2}$O$_{4}$
,,,,,Tedatioxetine,C$_{18}$H$_{21}$NS
,,,,,Picamilon,C$_{10}$H$_{12}$N$_{2}$O$_{3}$
,,,,,Tazomeline,C$_{14}$H$_{23}$N$_{3}$S$_{2}$
,,,,212.33,DIPN,C$_{16}$H$_{20}$
,,,,,Ricinelaidic acid,C$_{18}$H$_{34}$O$_{3}$
96,,,Partially in cold water,,Indole-3-carbinol,C$_{9}$H$_{9}$NO
-11.2,1.44246,21.69,reacts,92.011,Dinitrogen tetroxide,N$_{2}$O$_{4}$
,,,,,Afloqualone,C$_{16}$H$_{14}$FN$_{3}$O
,,,,,Bosutinib,C$_{26}$H$_{29}$Cl$_{2}$N$_{5}$O$_{3}$
,,,,,Furylfuramide,C$_{11}$H$_{8}$N$_{2}$O$_{5}$
,1.473,138,,149.03,Bromocyclopentane,C$_{5}$H$_{9}$Br
,,,,,Aluminium acetotartrate,
-28,,117,Reacts violently,123.5,Diethylzinc,(C$_{2}$H$_{5}$)$_{2}$Zn
,,,,,Mipomersen,C$_{230}$H$_{305}$N$_{67}$Na$_{19}$O$_{122}$P$_{19}$S$_{19}$
,,,,,Pivalonitrile,C$_{5}$H$_{9}$N
125,1.69,,283,397.64,Sucralose,C$_{12}$H$_{19}$Cl$_{3}$O$_{8}$
,,,,,Protactinium(IV) oxide,O$_{2}$Pa
,,,,,AT-076,C$_{26}$H$_{35}$N$_{3}$O$_{3}$
850,6.78,,insoluble,514.16,Bismuth(III) sulfide,Bi$_{2}$S$_{3}$
316-318,,,,,Betulinic acid,C$_{30}$H$_{48}$O$_{3}$
,,,Nearly insoluble,,Malvin,$\circ$C$_{29}$H$_{35}$O$_{17}^{+}$(cation)
,,,,266.228,Palladium(II) bromide,PdBr$_{2}$
165-169,,,,,Rhodanine,C$_{3}$H$_{3}$NOS$_{2}$
,,,,,SKF-82 958,
,,,,,Nitroxazepine,C$_{18}$H$_{19}$N$_{3}$O$_{4}$
,,,,431.6549,Vanadium(III) iodide,VI$_{3}$
,,,,,Alitame,C$_{14}$H$_{25}$N$_{3}$O$_{4}$S
,,,,79.01224,Peroxynitric acid,HNO$_{4}$
-100,,-15,,77.4731,Chlorine azide,ClN$_{3}$
,,,,158.038676,Monocalcium aluminate,CaAl$_{2}$O$_{4}$
,,,,322.97,Polonium hexafluoride,PoF$_{6}$
,,,,,SNAP-7941,C$_{33}$H$_{41}$F$_{2}$N$_{5}$O$_{6}$
,,,,,Cadalene,C$_{15}$H$_{18}$
,,,,,Quinestradol,C$_{23}$H$_{32}$O$_{3}$
-85,0.858,118,,,Triethyl borate,BC$_{6}$H$_{15}$O$_{3}$
836,7.234,,6.21$\cdot$10$^{-15}$ g/L (20 $^{\circ}$C),,Silver sulfide,Ag$_{2}$S
,1.71,428.4,,,Dimethyl chlorendate,C$_{11}$H$_{8}$Cl$_{6}$O$_{4}$
551.7,2.2,,Decomposes,54.9886,Sodium superoxide,NaO$_{2}$
240,1.37,,low,,Dimethylglyoxime,C$_{4}$H$_{8}$N$_{2}$O$_{2}$
188,,285.9,8.6,,Triacetic acid lactone,C$_{6}$H$_{6}$O$_{3}$
,,,,,Radium-223,chemical_formula$^{223}$RaCl$_{2}$
,,,,1042.19,Ornipressin,C$_{45}$H$_{63}$N$_{13}$O$_{12}$S$_{2}$
294-296,,425,20-30,959.17,Decabromodiphenyl ether,C$_{12}$Br$_{10}$O
,,,,,Afurolol,C$_{15}$H$_{21}$NO$_{4}$
145,,,,,Maltitol,C$_{12}$H$_{24}$O
,,,,47.013,Nitrous acid,HNO$_{2}$
33.8,0.86,381.5,Insoluble,,Erucic acid,C$_{22}$H$_{42}$O$_{2}$
84.5,1.13,,2.04,,Acrylamide,C$_{3}$H$_{5}$NO
,,,,,Telbivudine,C$_{10}$H$_{14}$N$_{2}$O$_{5}$
,,,,,Imolamine,C$_{14}$H$_{20}$N$_{4}$O
,,,,332.3,Koaburaside,C$_{14}$H$_{20}$O$_{9}$
,,,Miscible,,Sec-Butylamine,C$_{4}$H$_{11}$N
10,,185,Miscible,,Benzylamine,C$_{7}$H$_{9}$N
,,,,,Cafedrine,C$_{18}$H$_{23}$N$_{5}$O$_{3}$
,,,,,Pericine,C$_{19}$H$_{22}$N$_{2}$
129,2.3,330,125,148.32,Magnesium nitrate,Mg(NO$_{3}$)$_{2}$
,,,,,O-1269,C$_{22}$H$_{22}$Cl$_{3}$N$_{3}$O
,,,,,Eliprodil,C$_{20}$H$_{23}$ClFNO
,,,,,Paclitaxel,C$_{47}$H$_{51}$NO$_{14}$
,,,,,Samarium (153Sm) lexidronam,
,,,,,ZK-93423,C$_{23}$H$_{22}$N$_{2}$O$_{4}$
900,,,,221.6127,Copper(I) phosphide,Cu$_{3}$P
,,,,,XLR-11 (drug),
,,,,,Alvameline,C$_{9}$H$_{15}$N$_{5}$
133.4,,164.5,,,Iprodione,C$_{13}$H$_{13}$Cl$_{2}$N$_{3}$O$_{3}$
93,,,,,N-Acetylmescaline,C$_{13}$H$_{19}$NO$_{4}$
66-67,1.2,,Insoluble,,Binapacryl,C$_{15}$H$_{18}$N$_{2}$O$_{6}$
,,,,,Onchidal,C$_{17}$H$_{24}$O$_{3}$
,,,,,Lithium succinate,
,,66,reactive,105.95,Lithium triethylborohydride,Li(C$_{2}$H$_{5}$)$_{3}$BH
138,1.375,326.7,,,Aminooxyacetic acid,C$_{2}$H$_{5}$NO$_{3}$
,,,Insoluble,,Bay K8644,C$_{16}$H$_{15}$F$_{3}$N$_{2}$O$_{4}$
,,,,118.045,Mesoxalic acid,C$_{3}$H$_{2}$O$_{5}$
-50,,385,0.00003% (23.8$^{\circ}$C),,Bis(2-ethylhexyl) phthalate,C$_{24}$H$_{38}$O$_{4}$
30,1.02,325,3.04,,Sparteine,C$_{15}$H$_{26}$N$_{2}$
,,,,,Thenalidine,C$_{17}$H$_{22}$N$_{2}$S
-117.18,,35.74,0.334,,Isopropyl chloride,C$_{3}$H$_{7}$Cl
,,,,,Eosin B,C$_{20}$H$_{8}$Br$_{2}$N$_{2}$O$_{9}$
,,,,563.687,Dihydroergocornine,C$_{31}$H$_{41}$N$_{5}$O$_{5}$
,,,,356.23,Chebulic acid,C$_{27}$H$_{24}$O$_{18}$
,,,,,Echinopsidine,C$_{10}$H$_{12}$N$_{2}$
,,,,,PRO 2000,
,,,,,Cimetidine,C$_{10}$H$_{16}$N$_{6}$S
-73.1,,139.8,2.6,,Acetic anhydride,C$_{4}$H$_{6}$O$_{3}$
,,,,,Baeocystin,C$_{11}$H$_{15}$N$_{2}$O$_{4}$P
-51.6,,230,insoluble,164.201,Propyl benzoate,C$_{10}$H$_{12}$O$_{2}$
,,,,,Nafamostat,C$_{19}$H$_{17}$N$_{5}$O$_{2}$
,,,soluble in water,237.155,Copper(II) tetrafluoroborate,Cu(BF$_{4}$)$_{2}$
,3.63,,,295.27,Barium metaphosphate,Ba(PO$_{3}$)$_{2}$
,,,,,Tesaglitazar,C$_{20}$H$_{24}$O$_{7}$S
,,,,,Phellamurin,C$_{26}$H$_{30}$O
,,,,,Procaterol,C$_{16}$H$_{22}$N$_{2}$O$_{3}$
,,,,,Amflutizole,C$_{11}$H$_{7}$F$_{3}$N$_{2}$O$_{2}$S
-45,,38.3,10% (15$^{\circ}$C),57.051,Methyl isocyanate,H$_{3}$CNCO
,,,,401.42,Dithiopyr,C$_{15}$H$_{16}$F$_{5}$NO$_{2}$S$_{2}$
,,,,,Tibolone,C$_{21}$H$_{28}$O$_{2}$
,,,,,ADH-1,C$_{22}$H$_{34}$N$_{8}$O$_{6}$S$_{2}$
200-300,3.12,,negligible,,Manganese(II) carbonate,MnCO$_{3}$
,,,,346.91732,Chlorproethazine,C$_{19}$H$_{23}$ClN$_{2}$S
58.5,,,"water, carbon tetrachloride",295.8866,Titanium nitrate,Ti(NO$_{3}$)$_{4}$
,,,,,Minocycline,C$_{23}$H$_{27}$N$_{3}$O$_{7}$
855,,,,221.27,Samarium(II) chloride,SmCl$_{2}$
25.93,,161.84,3.6,100.158,Cyclohexanol,C$_{6}$H$_{12}$O
,,,,318.86,Thioflavin,C$_{17}$H$_{19}$ClN$_{2}$S
,,,,,Cloperastine,C$_{20}$H$_{24}$ClNO
34,,122,not soluble,,N N'-Dicyclohexylcarbodiimide,C$_{13}$H$_{22}$N$_{2}$
,,,,,Nalorphine,C$_{19}$H$_{21}$NO$_{3}$
834,2.747,,,,Lithium triborate,LiB$_{3}$O$_{5}$
,,,,,Tolazoline,C$_{10}$H$_{12}$N$_{2}$
160-163,1.199,360-380,,260.33,Triphenylmethanol,C$_{19}$H$_{16}$O
,,,,,Paliperidone,C$_{23}$H$_{27}$FN$_{4}$O$_{3}$
,,,,,Pegaspargase,C$_{1377}$H$_{2208}$N$_{382}$O$_{442}$S$_{17}$
,,,,87.14,Ethylthiocyanate,C$_{3}$H$_{5}$NS
,,,,,Traumatin,C$_{12}$H$_{20}$O$_{3}$
,,,,,Sulfametomidine,C$_{12}$H$_{14}$N$_{4}$O$_{3}$S
,,,,,Cyclic ADP-ribose,C$_{15}$H$_{21}$N$_{5}$O$_{13}$P$_{2}$
,,,,,Taxamairin A,C$_{21}$H$_{22}$O$_{4}$
,,,Insoluble in water and most petroleum solvents,,Cobalt green,CoZnO$_{2}$
,,,insoluble,,Nickel boride,Ni$_{2}$B
,,,,,Interferon $\beta$ 1a,C$_{908}$H$_{1408}$N$_{246}$O$_{252}$S$_{7}$
,,,,,Drostanolone propionate,
,,,,,Oil Red O,C$_{26}$H$_{24}$N$_{4}$O
122,,,,257.347,HOT-2,C$_{12}$H$_{19}$NO$_{3}$S
,,,,,Clobenztropine,C$_{21}$H$_{24}$ClNO
,,,,722.91,Prephytoene diphosphate,C$_{40}$H$_{68}$O$_{7}$P$_{2}$
,,,,,Disulfur,S$_{2}$
,,,,198.0392,Potassium ferrate,K$_{2}$FeO$_{4}$
,,,,,Tifluadom,C$_{22}$H$_{20}$FN$_{3}$OS
,,,,566.64,Antiarin,C$_{29}$H$_{42}$O$_{11}$
104,,,,,Sinapaldehyde,C$_{11}$H$_{12}$O$_{4}$
,,,,300.4308,Tetramethylammonium pentafluoroxenate,N(CH$_{3}$)$_{4}$XeF$_{5}$
,,,,,Thioproperazine,C$_{22}$H$_{30}$N$_{4}$O$_{2}$S$_{2}$
,,,,,Siderin,C$_{12}$H$_{12}$O$_{4}$
350,1.93,,,258.15,TATB,C$_{6}$H$_{6}$N$_{6}$O$_{6}$
,,,,,Oxymetazoline,C$_{16}$H$_{24}$N$_{2}$O
300,,,330,329.24,Potassium ferricyanide,C$_{6}$N$_{6}$FeK$_{3}$
,,,,,Technetium (99mTc) etarfolatide,
,,,,,N1-Methyl-lysergic acid diethylamide,
,,,,,Procaine,C$_{13}$H$_{20}$N$_{2}$O$_{2}$
,,,,,Fengabine,C$_{17}$H$_{17}$Cl$_{2}$NO
,,,,,Dithionic acid,H$_{2}$S$_{2}$O$_{6}$
,,,,,Troxipide,C$_{15}$H$_{22}$N$_{2}$O$_{4}$
,,,,,Delorazepam,C$_{15}$H$_{10}$Cl$_{2}$N$_{2}$O
-80,1.09,37,highly soluble,43.03,Hydrazoic acid,HN$_{3}$
,,152,,234.25,Diisopropyl tartrate,C$_{10}$H$_{18}$O$_{6}$
,,,,,Nabilone,C$_{24}$H$_{36}$O$_{3}$
,,,,402.43,Gmelinol,C$_{22}$H$_{26}$O$_{7}$
,,,,,Iodide,I$^{-}$
124.4,,,,,Carnidazole,C$_{8}$H$_{12}$N$_{4}$O$_{3}$S
2200,2.56,,insoluble,156.714,Aluminium dodecaboride,AlB$_{12}$
,,,,,Acridine orange,C$_{17}$H$_{19}$N$_{3}$
64,,233,,,Tropine,C$_{8}$H$_{15}$NO
,,,,243.28,TAPS (buffer),C$_{7}$H$_{17}$NO$_{6}$S
,,,,,Primaquine,C$_{15}$H$_{21}$N$_{3}$O
,,,,267.368,VR (nerve agent),C$_{11}$H$_{26}$NO$_{2}$PS
236-237,,,,,Chloro(triphenylphosphine)gold(I),C$_{18}$H$_{15}$PAuCl
,,,,,Bavituximab,C$_{6446}$H$_{9946}$N$_{1702}$O$_{2042}$S$_{42}$
160,,,,372.7198,Tetrakis(acetonitrile)copper(I) hexafluorophosphate,(Cu(CH$_{3}$CN)$_{4}$)PF$_{6}$
-95,0.89,102,18.9,,Propyl acetate,C$_{5}$H$_{10}$O$_{2}$
,,,,,Etanautine,C$_{26}$H$_{31}$N$_{5}$O$_{5}$
,,,,418.35,Juglanin,C$_{20}$H$_{18}$O$_{10}$
160,,250,,396.65,Ergosterol,C$_{28}$H$_{44}$O
,,,,,Glucose 6-phosphate,C$_{6}$H$_{13}$O$_{9}$P
,,,,,AB-CHMINACA,C$_{20}$H$_{28}$N$_{4}$O$_{2}$
> 300,1.3,,,278.36,Pentacene,C$_{22}$H$_{14}$
,,,,,Arterolane,C$_{22}$H$_{36}$N$_{2}$O$_{4}$
,,,,,Prednisolone,C$_{21}$H$_{28}$O$_{5}$
78,3.743,780,1.67,171.34,Barium hydroxide,Ba(OH)$_{2}$
,,,,239.31,AEM (psychedelic),C$_{13}$H$_{21}$NO$_{3}$
,,,,,Benproperine,C$_{21}$H$_{27}$NO
,,,,,OX1001,C$_{38}$H$_{49}$N$_{7}$O$_{7}$
,,,,1084.71,Punicalagin,C$_{48}$H$_{28}$O$_{30}$
,,,,,Zaleplon,C$_{17}$H$_{15}$N$_{5}$O
295-297,,,,196.14,Alafosfalin,C$_{5}$H$_{13}$N$_{2}$O$_{4}$P
,,,,,Spironolactone,C$_{24}$H$_{32}$O$_{4}$S
,,,,,SL65.0155,C$_{23}$H$_{26}$Cl$_{2}$N$_{4}$O$_{4}$
,,,,88.6394,Germanium monoxide,GeO
306,2.898,315,,162.2,Iron(III) chloride,FeCl$_{3}$
,6.1,,,,Bismuth vanadate,BiVO$_{4}$
163,1.71,471,"Insoluble in water. Soluble in acetone, ethanol, ether and chloroform.",,Hexachlorophene,C$_{7}$H$_{10}$N$_{2}$OS
,,,,,Tolufazepam,C$_{24}$H$_{20}$Cl$_{2}$N$_{2}$O$_{3}$S
52,1.031,115,Soluble,80.09,Pyrazine,C$_{4}$H$_{4}$N$_{2}$
,,,,765.89,Fast Green FCF,C$_{37}$H$_{37}$N$_{2}$O$_{10}$S$_{3}$+
180,,,,179.171,Galactosamine,C$_{6}$H$_{13}$NO$_{5}$
,,,,,Toloxatone,C$_{11}$H$_{13}$NO$_{3}$
-88,,102,Insoluble,,FC-75,C$_{8}$F$_{16}$O
,,,,,Polyestradiol phosphate,
,,,,,Lithium tetrachloroaluminate,LiAlCl$_{4}$
,,,,284.138,Procymidone,C$_{13}$H$_{11}$Cl$_{2}$NO$_{2}$
,,,,,Benoxaprofen,C$_{16}$H$_{12}$ClNO$_{3}$
,,,,374.29,Fucophlorethol A,C$_{18}$H$_{14}$O$_{9}$
,,,,,Narcobarbital,C$_{11}$H$_{15}$BrN$_{2}$O$_{3}$
,,,,,Diphenylcyanoarsine,C$_{13}$H$_{10}$AsN
232-235,,577.6,,304.39,Tetraphenylene,C$_{24}$H$_{16}$
,,,,,Acetylfentanyl,C$_{21}$H$_{26}$N$_{2}$O
,,,,308.33,Monocerin,C$_{16}$H$_{20}$O$_{6}$
,,,,,Enflurane,C$_{3}$H$_{2}$ClF$_{5}$O
,,,,,Profenamine,C$_{19}$H$_{24}$N$_{2}$S
6.5,1.046,271,,176.21,Ethyl cinnamate,C$_{11}$H$_{12}$O$_{2}$
,,,,,Rintatolimod,C$_{45}$H$_{74}$BNO$_{15}$
,,,,272.29,Gnetucleistol E,C$_{16}$H$_{16}$O$_{4}$
,,,,,Serelaxin,C$_{256}$H$_{408}$N$_{74}$O$_{74}$S$_{8}$
,,71,,,Bis(trimethylsilyl)acetamide,C$_{8}$H$_{21}$NOSi$_{2}$
133,1.2475,300,500,,Cinnamic acid,C$_{9}$H$_{8}$O$_{2}$
,,,,,Cefoperazone,C$_{25}$H$_{27}$N$_{9}$O$_{8}$S$_{2}$
,2.08,,low,,Cyamelide,H$_{x}$N$_{x}$C$_{x}$O$_{x}$
,,,,,Prochlorperazine,C$_{20}$H$_{24}$ClN$_{3}$S
-3,1.47,,,,Trimethylolethane trinitrate,C$_{5}$H$_{9}$N$_{3}$O$_{9}$
,,,,,Ramucirumab,C$_{6374}$H$_{9864}$N$_{1692}$O$_{1996}$S$_{46}$
,,,,,Cinepazide,C$_{22}$H$_{31}$N$_{3}$O$_{5}$
,,,,404.41,Mallotophenone,C$_{21}$H$_{24}$O$_{8}$
,,,,,Hydrangeic acid,C$_{15}$H$_{12}$O$_{4}$
104,,,,,Ammonia borane,BNH$_{6}$
159,,,,,D-Galacturonic acid,C$_{6}$H$_{10}$O$_{7}$
,,,,232.27,Dihydrokavain,C$_{14}$H$_{16}$O$_{3}$
230,,,,,Mucic acid,C$_{6}$H$_{10}$O$_{8}$
,,,,,Methylenedioxypyrovalerone,C$_{16}$H$_{21}$NO$_{3}$
,,,,203.92,Ferrous tartrate,C$_{4}$H$_{4}$FeO$_{6}$
,,,,,Propylamphetamine,C$_{12}$H$_{19}$N
448,8.39,1367,,440.833,Thallium(I) sulfide,Tl$_{2}$S
,,,,,Roflumilast,C$_{17}$H$_{14}$Cl$_{2}$F$_{2}$N$_{2}$O$_{3}$
,,,,,Guanosine,C$_{10}$H$_{13}$N$_{5}$O$_{5}$
310,3.11,578,44.28,147.473,Rubidium nitrate,RbNO$_{3}$
120-123,1.2132,162,Miscible,,Phosphamidon,C$_{10}$H$_{19}$ClNO$_{5}$P
,,,,,Artesunate,C$_{19}$H$_{28}$O$_{8}$
260.5,,276,5.6,,Pentaerythritol,C$_{5}$H$_{12}$O$_{4}$
1195,2.67,,decomposes,,Calcium nitride,Ca$_{3}$N$_{2}$
,,,,,Arformoterol,C$_{19}$H$_{24}$N$_{2}$O$_{4}$
,,,,,Ricasetron,C$_{19}$H$_{27}$N$_{3}$O
,,,,526.603,Isodesmosine,C$_{24}$H$_{40}$N$_{5}$O$_{8}$
130-132,,,,,Rhodizonic acid,C$_{6}$H$_{2}$O$_{6}$
,,,,,Leptosidin,C$_{16}$H$_{12}$O$_{6}$
,,,,,Dexlansoprazole,C$_{16}$H$_{14}$F$_{3}$N$_{3}$O$_{2}$S
,,,,,Oxamniquine,C$_{14}$H$_{21}$N$_{3}$O$_{3}$
,,,,,Trisulfane,H$_{2}$S$_{3}$
,,,,310.74,Mabuterol,C$_{13}$H$_{18}$ClF$_{3}$N$_{2}$O
1955,6.67,,negligible,74.6928,Nickel(II) oxide,NiO
,,,,,Brentuximab vedotin,
208-210,1.3,,,,BIM-1,C$_{25}$H$_{24}$N$_{4}$O$_{2}$
,,,,,Oxprenolol,C$_{15}$H$_{23}$NO$_{3}$
,,,,239.311,MME (psychedelic),C$_{13}$H$_{21}$NO$_{3}$
,,,,,Mapracorat,C$_{25}$H$_{26}$F$_{4}$N$_{2}$O$_{2}$
,,,,,Bisulfide,HS$^{-}$
,,,,,Flunisolide,C$_{24}$H$_{31}$FO$_{6}$
178,,798.5,,347.22,Adenosine monophosphate,C$_{10}$H$_{14}$N$_{5}$O$_{7}$P
,,,,,Pazinaclone,C$_{25}$H$_{23}$ClN$_{4}$O$_{4}$
1350,3.77,,insoluble,200.19,Chromium(III) sulfide,Cr$_{2}$S$_{3}$
39,3.25,230,,367.483,Titanium tetrabromide,TiBr$_{4}$
-99,,63.5,,,Diphosphane,H$_{4}$P$_{2}$
498,3.386,993,70.6,134.45,Copper(II) chloride,CuCl$_{2}$
,,,,,Bifemelane,C$_{18}$H$_{23}$NO
,,,,,SNAP-94847,C$_{29}$H$_{32}$F$_{2}$N$_{2}$O$_{2}$
188-189,,,,167.21,Deoxyepinephrine,C$_{9}$H$_{13}$NO$_{2}$
,,,,,Dantron,C$_{14}$H$_{8}$O$_{4}$
258,1.5,174,"CHCl$_{3}$, CH$_{2}$Cl$_{2}$, Benzene, CH$_{3}$OH, CH$_{3}$CH$_{2}$OH",265.157,Vanadyl acetylacetonate,C$_{10}$H$_{14}$O$_{5}$V
,0.87,,,508.902,Tetratriacontanoic acid,C$_{34}$H$_{68}$O$_{2}$
175,2.13,,soluble,148.97,Cobalt(II) formate,Co(HCOO)$_{2}$
,,,,,Ispronicline,C$_{14}$H$_{22}$N$_{2}$O
468,2.4994,482,209.6,122.44,Sodium perchlorate,NaClO$_{4}$
,1.25,,,,Senecionine,C$_{18}$H$_{25}$NO$_{5}$
,,,,379.46,Atevirdine,C$_{21}$H$_{25}$N$_{5}$O$_{2}$
,,,,,Bimatoprost,C$_{25}$H$_{37}$NO$_{4}$
291-295,,,,,Decamethylferrocene,C$_{20}$H$_{30}$Fe
,,,,,Pethidinic acid,
,,,,,SB-204070,C$_{19}$H$_{27}$ClN$_{2}$O$_{4}$
12,,50,,119.92,Catecholborane,C$_{6}$H$_{5}$BO$_{2}$
,,,"32.5pts per 100pts solvent, cold water, 182pts per 100pts, boiling water",,Sodium ferrioxalate,Na$_{3}$(Fe(C$_{2}$O$_{4}$)$_{3}$)
,,,,,WMS-2539,C$_{20}$H$_{22}$FNO$_{2}$
246-256,,,Insoluble,1664.83,Thiostrepton,C$_{72}$H$_{85}$N$_{19}$O$_{18}$S$_{5}$
250,,,decomposes,,Nitrosonium tetrafluoroborate,NOBF$_{4}$
,,,,,Indorenate,C$_{13}$H$_{16}$N$_{2}$O$_{3}$
,,,,261.061,Methazole,C$_{9}$H$_{6}$Cl$_{2}$N$_{2}$O$_{3}$
138,,329,,175.22,P-Dimethylaminocinnamaldehyde,C$_{11}$H$_{13}$NO
,,,,,Anidulafungin,C$_{58}$H$_{73}$N$_{7}$O$_{17}$
140,2.49,,tetrahydrate:   331,277.9493,Calcium permanganate,Ca(MnO$_{4}$)$_{2}$
,,,,27.03,Hydrogen isocyanide,HNC
,,,,,PSN-375 963,
,,,,,Norethisterone acetate,
,,,,,Impromidine,C$_{14}$H$_{23}$N$_{7}$S
,,,,,Theaflavin,C$_{29}$H$_{24}$O$_{12}$
76-77,1.0809,265.5,15,136.15,Phenylacetic acid,C$_{8}$H$_{8}$O$_{2}$
,,,,,Quinidine,C$_{20}$H$_{24}$N$_{2}$O$_{2}$
,,,,,Dimethylaminopropylamine,C$_{5}$H$_{14}$N$_{2}$
,,,,,Racemorphan,C$_{17}$H$_{23}$NO
,,,,,Daledalin,C$_{19}$H$_{24}$N$_{2}$
225.5,,,,,Cordycepin,C$_{10}$H$_{13}$N$_{5}$O$_{3}$
,,,,,Disodium aurothiomalate,
,,,,290.26,Robinetinidol,C$_{15}$H$_{14}$O$_{6}$
,,,,,ELQ-300,C$_{24}$H$_{17}$ClF$_{3}$NO$_{4}$
,,,,,Monoctanoin,C$_{11}$H$_{22}$O$_{4}$
,,,,625.55,Pinotin A,C$_{31}$H$_{29}$O$_{14}$+
,,,,,Nealbarbital,C$_{12}$H$_{18}$N$_{2}$O$_{3}$
,,,,,Sulfentrazone,C$_{11}$H$_{10}$Cl$_{2}$F$_{2}$N$_{4}$O$_{3}$S
,,,,320.51,Adipostatin A,C$_{21}$H$_{36}$O$_{2}$
,,,,84.03,Cyclopropanetrione,C$_{3}$O$_{3}$
,,,,,Clotrimazole,C$_{22}$H$_{17}$ClN$_{2}$
198-199,1.293$\pm$0.06,,,,Ecgonine,C$_{9}$H$_{15}$NO$_{3}$
,,,,,Lithium cobalt oxide,LiCoO$_{2}$
241,,,,,EGTA (chemical),C$_{14}$H$_{24}$N$_{2}$O$_{10}$
,,,,332.25,Annulatin,C$_{16}$H$_{12}$O$_{8}$
1945,5.43,,insoluble,70.9374,Manganese(II) oxide,MnO
,,,,,Imetit,C$_{6}$H$_{10}$N$_{4}$S
,,,,,Piperidione,C$_{9}$H$_{15}$NO$_{2}$
,,,,,FGI-106,C$_{28}$H$_{38}$N$_{6}$
,,,,,Tetracosactide,C$_{136}$H$_{210}$N$_{40}$O$_{31}$S
,,,,,Sodium ricinoleate,C$_{18}$H$_{33}$NaO$_{3}$
,,,,,Tolfenamic acid,
225-227,1.752,,,180.16,Inositol,C$_{6}$H$_{12}$O$_{6}$
,,,,,Piperoxan,C$_{14}$H$_{19}$NO$_{2}$
,,,,34.03,Fluoromethane,CH$_{3}$F
,,,,,Fluphenazine,C$_{22}$H$_{26}$F$_{3}$N$_{3}$OS
,,,,,Fencamine,C$_{20}$H$_{28}$N$_{6}$O$_{2}$
-256,,,Unknown,59.954,Argon fluorohydride,HArF
,,,,,Chlorosilane,H$_{3}$ClSi
,,,,,Hexobendine,C$_{30}$H$_{44}$N$_{2}$O$_{10}$
241,1.2,,212,,Sodium cyanoborohydride,NaBH$_{3}$CN
,,,,,Isoquercetin,C$_{21}$H$_{20}$O$_{12}$
,,,,,Anthocyanone A,C$_{14}$H$_{16}$O$_{10}$
,1.19,436.7,,,Benzo(c)phenanthrene,C$_{18}$H$_{12}$
,,,,,Dolasetron,C$_{19}$H$_{20}$N$_{2}$O$_{3}$
,,,,338.4,Picrinine,C$_{20}$H$_{22}$N$_{2}$O$_{3}$
,,,,,Ocrelizumab,C$_{6494}$H$_{9978}$N$_{1718}$O$_{2014}$S$_{46}$
71.5,,,,,Beta-Eleostearic acid,C$_{18}$H$_{30}$O$_{2}$
,,,,,Levorphanol,C$_{17}$H$_{23}$NO
454-456,,,,,Hexaphenylbenzene,C$_{42}$H$_{30}$
,,,,,Prostaglandin F2$\alpha$,C$_{20}$H$_{34}$O$_{5}$
-87,0.834,116,,,Allyl cyanide,C$_{3}$H$_{3}$NO
,,,,,Metaphit,C$_{18}$H$_{24}$N$_{2}$S
,,,,1292.425,Niobium triselenide,NbSe$_{3}$
,,,,,Chloride,C$_{6}$H$_{3}$N$_{3}$O$_{7}$
,,,,,Sodium acetrizoate,
,,,,,Deoxypyridinoline,C$_{18}$H$_{28}$N$_{4}$O$_{7}$
,,,Reacts violently,,Hexyllithium,C$_{6}$H$_{13}$Li
183,1.24,,,,Sodium aluminium hydride,NaAlH$_{4}$