Property Melting Point,Property Density,Property Boiling Point,Property Solubility,Property Molar Mass,Name,formula
,,,61,,Butane,C$_{4}$H$_{10}$
,,,,,Trifluridine,C$_{10}$H$_{11}$F$_{3}$N$_{2}$O$_{5}$
,,,,,Isopropylamphetamine,C$_{12}$H$_{19}$N
133-135,1.32,,107.9,,Urea,H$_{4}$CON$_{2}$
,,,,,Oxolamine,C$_{14}$H$_{19}$N$_{3}$O
,,,,,Genistein,C$_{15}$H$_{10}$O$_{5}$
,,,,,Ciclosporin,C$_{62}$H$_{111}$N$_{11}$O$_{12}$
25,,,Soluble (with reaction),179.288,Xenon trioxide,XeO$_{3}$
-86.9,,-66.8,221,,Hydrogen bromide,HBr
963,5.098,,113,218.53,Nickel(II) bromide,NiBr$_{2}$
,,,,,Isobucaine,C$_{15}$H$_{23}$NO$_{2}$
,,,,,Ungeremine,C$_{16}$H$_{12}$NO$_{3}$
,,,,323.432,Prodigiosin,C$_{20}$H$_{25}$N$_{3}$O
180,2.59,,55.6,238.1,Sodium persulfate,Na$_{2}$S$_{2}$O$_{8}$
93,,265,Insoluble,,Skatole,C$_{9}$H$_{9}$N
,,,,,Metoclopramide,C$_{14}$H$_{22}$ClN$_{3}$O$_{2}$
,,,,,Darbepoetin alfa,
-89.6,,70.7,,,Hydrogen disulfide,H$_{2}$S$_{2}$
,,,,,Clofibride,C$_{16}$H$_{22}$ClNO$_{4}$
-123,,5.95,2%,,Methanethiol,CH$_{4}$S
,,,,448.37,Trifolin,C$_{21}$H$_{20}$O$_{11}$
,1.195,103,,,Benzyl chloroformate,C$_{8}$H$_{7}$ClO$_{2}$
-167.3,,-16,,,Fluorine perchlorate,FClO$_{4}$
,1.67,,,302.197,Ellagic acid,C$_{14}$H$_{6}$O$_{8}$
350,1.79,,50,56.063,Sodium hydrosulfide,NaHS
6,,,24,,Parathion,C$_{10}$H$_{14}$NO$_{5}$PS
-20,1.289,106,Miscible,,Oxydemeton-methyl,C$_{6}$H$_{15}$O$_{4}$PS$_{2}$
,,,,,Tetraethylmethane,C$_{9}$H$_{20}$
,,,,,Deoxyadenosine diphosphate,C$_{10}$H$_{15}$N$_{5}$O$_{9}$P$_{2}$
,,,,,Amdoxovir,C$_{9}$H$_{12}$N$_{6}$O$_{3}$
,,,Sparingly soluble in water,,Hexol,Co$_{4}$H$_{42}$N$_{12}$O$_{18}$S$_{3}$
103,,,Miscible,,Arabitol,C$_{5}$H$_{12}$O$_{5}$
91-92,,,Reacts,,Triethyloxonium tetrafluoroborate,C$_{6}$H$_{15}$BF$_{4}$O
,,,,,Pimavanserin,C$_{25}$H$_{34}$FN$_{3}$O$_{2}$
,,,,,Sonidegib,C$_{26}$H$_{26}$F$_{3}$N$_{3}$O$_{3}$
,,427.5,,160.17,Gamma-Glutamylmethylamide,C$_{6}$H$_{12}$N$_{2}$O$_{3}$
224,2.48,,insoluble,639.33,Triruthenium dodecacarbonyl,C$_{12}$O$_{12}$Ru$_{3}$
8-Apr,1.128,,,380-420,PEG 400,"C$_{2n}$H$_{4n+2}$O$_{n+1}$,n8.2to9."
,,,,,Alpha-Methylserotonin,C$_{11}$H$_{14}$N$_{2}$O
905,3.98,,soluble,281.325,Lutetium(III) chloride,LuCl$_{3}$
,,,,,Avizafone,C$_{22}$H$_{27}$ClN$_{4}$O$_{3}$
,1.14,,0.03% (20$^{\circ}$C),303.357,Fenamiphos,C$_{13}$H$_{22}$NO$_{3}$PS
,,,very soluble,196.157,Potassium aluminate,K$_{2}$Al$_{2}$O$_{4}$
,,,,,Fedrilate,C$_{20}$H$_{29}$NO$_{4}$
,,,,,Trifluoperazine,C$_{21}$H$_{24}$F$_{3}$N$_{3}$S
,,,,,Besipirdine,C$_{16}$H$_{17}$N$_{3}$
,,,,390.47,Prostratin,C$_{22}$H$_{30}$O$_{6}$
,,,,,Sulbenicillin,C$_{16}$H$_{18}$N$_{2}$O$_{7}$S$_{2}$
166-167,,150-160,Sparingly soluble,,Traumatic acid,C$_{12}$H$_{20}$O$_{4}$
,,,,,Brifentanil,C$_{20}$H$_{29}$FN$_{6}$O$_{3}$
73-77,,,,,Tris(2-pyridylmethyl)amine,C$_{18}$H$_{18}$N$_{4}$
,,,,695.72,Titan yellow,C$_{28}$H$_{19}$N$_{5}$Na$_{2}$O$_{6}$S$_{4}$
145-150,1.294,,Soluble in boiling water,,Phenylthiocarbamide,C$_{7}$H$_{8}$N$_{2}$S
203-206,,,,,Wogonin,C$_{16}$H$_{12}$O$_{5}$
71.5,,,Extremely soluble,177.98,Pyrophosphoric acid,H$_{4}$P$_{2}$O$_{7}$
303,,,,113.07,Nitroimidazole,C$_{3}$H$_{3}$N$_{3}$O$_{2}$
716,,,decomposes in water,487.08,Cadmium arsenide,Cd$_{3}$As
,,,,,Potassium canrenoate,
,,,,295.846,Pitolisant,C$_{17}$H$_{26}$ClNO
735,3.356,1049,43.6,129.839,Cobalt(II) chloride,CoCl$_{2}$
,,,,,Pexacerfont,C$_{18}$H$_{24}$N$_{6}$O
-88,,80,72,,Methyl propionate,C$_{4}$H$_{8}$O$_{2}$
,,,,,DAA-1097,C$_{24}$H$_{24}$ClNO$_{3}$
,,,,,Sulfinpyrazone,C$_{23}$H$_{20}$N$_{2}$O$_{3}$S
,,,,747.743,Tetrarhodium dodecacarbonyl,C$_{12}$O$_{12}$Rh$_{4}$
,,,,,Insulin aspart,
,,,,,Anisodamine,C$_{17}$H$_{23}$NO$_{4}$
204,,,,344.315,Usnic acid,C$_{18}$H$_{16}$O$_{7}$
-34.07,2.226,114.15,decomposes,260.5,Tin(IV) chloride,SnCl$_{4}$
,,,,325.35,Amurensine,C$_{19}$H$_{19}$NO$_{4}$
,,,,,Dimetofrine,C$_{11}$H$_{17}$NO$_{4}$
,,,,,Zalospirone,C$_{24}$H$_{29}$N$_{5}$O$_{2}$
118,,,"reacts violently, slowly hydrolysed",147.09,Methylnitronitrosoguanidine,C$_{2}$H$_{5}$N$_{5}$O$_{3}$
,,,,,AM404,C$_{26}$H$_{37}$NO$_{2}$
,,,,,Repirinast,C$_{20}$H$_{21}$NO$_{5}$
,,,,,Flutemetamol (18F),
,,,,,Titanium diselenide,TiSe$_{2}$
,,,,,CP-226 269,
280,,,,635.218,Tellurium tetraiodide,TeI$_{4}$
,,,,330.36,Isomalathion,C$_{10}$H$_{19}$O$_{6}$PS$_{2}$
,,,,,Cytochalasin E,C$_{28}$H$_{33}$NO$_{7}$
,,,,304.38,Estetrol,C$_{18}$H$_{24}$O$_{4}$
85-95,,161,,140.14,Ethyl maltol,C$_{7}$H$_{8}$O$_{3}$
,,,,,Norfenefrine,C$_{8}$H$_{11}$NO$_{2}$
,,,,,Anhalidine,C$_{12}$H$_{17}$NO$_{3}$
,1.43,,reacts,40.1062,Potassium hydride,KH
,,,,284.26,Prunetin,C$_{16}$H$_{12}$O$_{5}$
,,,,,Platinum fulminate,Pt(CNO)$_{2}$
23,,275,,,Undecylenic acid,C$_{11}$H$_{20}$O$_{2}$
,,,,,Leucopelargonidin,C$_{15}$H$_{14}$O$_{6}$
,,,,,Raloxifene,C$_{28}$H$_{27}$NO$_{4}$S
,,,,,Dezocine,C$_{16}$H$_{23}$NO
,,,,,Nesiritide,C$_{143}$H$_{244}$N$_{50}$O$_{42}$S$_{4}$
378,4.15,,33,214.773,Tin(II) sulfate,SnSO$_{4}$
,9,,,,Silver nitride,Ag$_{3}$N
57,1.63,196,Soluble in 0.1,,Trichloroacetic acid,C$_{2}$HCl$_{3}$O$_{2}$
,,,,366.254124,Tetracalcium phosphate,Ca$_{4}$(PO$_{4}$)$_{2}$O
,,,,,Mianserin,C$_{18}$H$_{20}$N$_{2}$
-118,,8.3,decomposes in water,,Phosgene,COCl$_{2}$
,,,,,Vargulin,C$_{22}$H$_{27}$N$_{7}$O
142,1.2,,very low (0.01% at 20$^{\circ}$C),,Carbaryl,C$_{12}$H$_{11}$NO$_{2}$
,,,,,Oxytocin,C$_{43}$H$_{66}$N$_{12}$O$_{12}$S$_{2}$
,,,,,Leupeptin,C$_{20}$H$_{38}$N$_{6}$O$_{4}$
,4.8,,insoluble,204.986,Cerium hexaboride,CeB$_{6}$
,,,,,Hidrosmin,C$_{30}$H$_{36}$O$_{16}$
,,,,321.46,Homodihydrocapsaicin,C$_{19}$H$_{31}$NO$_{3}$
~3246,6.085,,Insoluble,112.85,Zirconium diboride,ZrB$_{2}$
,,,,,Pentamorphone,C$_{22}$H$_{28}$N$_{2}$O$_{3}$
,,,,,Proquazone,C$_{18}$H$_{18}$N$_{2}$O
,,,,,Telithromycin,C$_{43}$H$_{65}$N$_{5}$O$_{10}$
12.5,0.9,254,0.3,158.23,Nonanoic acid,C$_{9}$H$_{18}$O$_{2}$
-22,1.35,139-140,Insoluble,180.05,Cyclopentadienylcobalt dicarbonyl,CPCo(CO)$_{2}$
,,,,328.36,Rhododendrin,C$_{16}$H$_{24}$O$_{7}$
,,,,,Quercitannic acid,"several,seetext"
,,,,,Alfetamine,C$_{11}$H$_{15}$N
,,,,,RTI-353,C$_{17}$H$_{22}$INO$_{2}$
,3.54,,hydrolysis,111.938,Manganese(III) fluoride,MnF$_{3}$
,,,,,Viqualine,C$_{20}$H$_{26}$N$_{2}$O
,,,,,Oxalic anhydride,C$_{2}$O$_{3}$
,,,,,Tolgabide,C$_{18}$H$_{18}$Cl$_{2}$N$_{2}$O$_{2}$
261-263,,,,,Resveratrol,C$_{14}$H$_{12}$O$_{3}$
,,,,,Fencamfamine,C$_{15}$H$_{21}$N
,,67,Slightly soluble,,Isobutyl nitrite,C$_{4}$H$_{9}$NO$_{2}$
,,,,,Calcium citrate malate,(C$_{6}$H$_{7}$O$_{7}$)$_{x}$.(C$_{4}$H$_{5}$O$_{5}$)$_{y}$.(Ca$^{2+}$)$_{z}$
,,,,,ICI-204 448,
,,,,,Ro-44-3888,C$_{16}$H$_{21}$NO$_{2}$
,,,,,Pioglitazone,C$_{19}$H$_{20}$N$_{2}$O$_{3}$S
2210,4.72,,insoluble,203.78,Lanthanum hexaboride,LaB$_{6}$
,,,,1120.74,Mallotusinic acid,C$_{48}$H$_{32}$O$_{32}$
,,,,,S-18986,C$_{10}$H$_{12}$N$_{2}$O$_{2}$S
,,,,,Palbociclib,C$_{24}$H$_{29}$N$_{7}$O$_{2}$
190-198,,,"Soluble in DMSO, dimethyl formamide, or water",194.18,Quebrachitol,C$_{7}$H$_{14}$O$_{6}$
,,,,,Dactinomycin,C$_{62}$H$_{86}$N$_{12}$O$_{16}$
365,,,"Partially soluble in cold water, hot water",,Bicinchoninic acid,C$_{20}$H$_{12}$N$_{2}$O$_{4}$
,,,,,Rolitetracycline,C$_{27}$H$_{33}$N$_{3}$O$_{8}$
,,,,434.51,MPPF,C$_{25}$H$_{27}$FN$_{4}$O$_{2}$
17.8,1.261,290,miscible,,Glycerol,C$_{3}$H$_{8}$O$_{3}$
202,,,,,WIN 35428,
,,,,,Parafluorofentanyl,C$_{22}$H$_{27}$FN$_{2}$O
,,,,767.11,Alcian yellow,C$_{40}$H$_{46}$N$_{8}$S$_{4}$
,,390,"soluble, but rather slow hydrolysis",350.79,Polonium tetrachloride,PoCl$_{4}$
95,,,very soluble,150.13,Ribose,C$_{5}$H$_{10}$O$_{5}$
,,,,391.546,Fenretinide,C$_{26}$H$_{33}$NO$_{2}$
,,,,,Geranyl pyrophosphate,C$_{10}$H$_{20}$O$_{7}$P$_{2}$
,,,,912.05,Saralasin,C$_{42}$H$_{65}$N$_{13}$O$_{10}$
,,279,,,Cucurbitin,C$_{5}$H$_{10}$N$_{2}$O$_{2}$
,,,,,Atenolol,C$_{14}$H$_{22}$N$_{2}$O$_{3}$
65-80,1.108,,0.00183,331.406,Tetramethrin,C$_{19}$H$_{25}$NO$_{4}$
-142.5,,-76.3,,100.02,Tetrafluoroethylene,C$_{2}$F$_{4}$
,,,,,Debrisoquine,C$_{10}$H$_{13}$N$_{3}$
,,,,,Ro4938581,C$_{13}$H$_{8}$BrF$_{2}$N$_{5}$
,,,,,HT-2157,C$_{21}$H$_{13}$F$_{3}$N$_{2}$O
,,,,298.29,Pterocarpin,C$_{17}$H$_{14}$O$_{5}$
,,,,,Cefradine,C$_{16}$H$_{19}$N$_{3}$O$_{4}$S
,,,,435.56,Paxilline,C$_{27}$H$_{33}$NO$_{4}$
,,,Highly soluble in water.,244.2,Pseudouridine,C$_{9}$H$_{12}$N$_{2}$O$_{6}$
129.5,1.73,Decomposes at 187,virtually insoluble in H$_{2}$O,287.15,Tetryl,C$_{7}$H$_{5}$N$_{5}$O$_{8}$
,,,,,Netupitant,chemical_formulaC$_{30}$H$_{32}$F$_{6}$N$_{4}$O
-6.3,,184.13,,93.13,Aniline,C$_{6}$H$_{5}$NH$_{2}$
108,,240,organic solvents,385.4747,Triphenyltin chloride,C$_{18}$H$_{15}$ClSn
,,,,197.23,DME (psychedelic),C$_{10}$H$_{15}$NO$_{3}$
,,,,269.767,Alachlor,C$_{14}$H$_{20}$ClNO$_{2}$
,,,,375.251,SCH-79687,C$_{18}$H$_{16}$Cl$_{2}$N$_{4}$O
,,,,,Sorafenib,C$_{21}$H$_{16}$ClF$_{3}$N$_{4}$O$_{3}$
,,,,202.295,N-Methyl-N-ethyltryptamine,C$_{20}$H$_{28}$O
,,,,262.3,Plicatin A,C$_{15}$H$_{18}$O$_{4}$
,,,,,Probucol,C$_{31}$H$_{48}$O$_{2}$S$_{2}$
-33,,20,,98.903,Bromine monofluoride,BrF
,,,,,SDZ SER-082,
,,,,,Lapatinib,C$_{29}$H$_{26}$ClFN$_{4}$O$_{4}$S
,,,,,EMA401,C$_{32}$H$_{29}$NO$_{5}$
,,,,,Farampator,C$_{12}$H$_{13}$N$_{3}$O$_{2}$
,,,,302.27,Dihydrokaempferide,C$_{16}$H$_{14}$O$_{6}$
,,,Soluble,,Pyranine,C$_{16}$H$_{7}$Na$_{3}$O$_{10}$S$_{3}$
150-151,,,,,Brassicasterol,C$_{28}$H$_{46}$O
20,0.998,234,,,Anethole,C$_{10}$H$_{12}$O
256,1.639,,Freely soluble,142.07,Alloxan,C$_{4}$H$_{2}$N$_{2}$O$_{4}$
,,,,,PEPA (drug),
,,,,548.63,Antimycin A,C$_{28}$H$_{40}$N$_{2}$O$_{9}$
385,,,,,Coumestrol,C$_{15}$H$_{8}$O$_{5}$
,,,,454.47,Pallidol,C$_{28}$H$_{22}$O$_{6}$
,,,,,Etiocholanolone,C$_{19}$H$_{30}$O$_{2}$
,,,,,Reproterol,C$_{18}$H$_{23}$N$_{5}$O$_{5}$
1041,,1050,,240.01,Cadmium telluride,CdTe
,,,,,Agomelatine,C$_{15}$H$_{17}$NO$_{2}$
,,,,,Imiquimod,C$_{14}$H$_{16}$N$_{4}$
219,,,,562.82,Rhodoxanthin,C$_{40}$H$_{50}$O$_{2}$
480,3.097,,slightly soluble,399.88,Iron(III) sulfate,Fe$_{2}$(SO$_{4}$)$_{3}$
,,,,,Anecortave,C$_{23}$H$_{30}$O$_{5}$
,,,,,Gliclazide,C$_{15}$H$_{21}$N$_{3}$O$_{3}$S
-95.2,0.982,170-174,,168.24,Massoia lactone,C$_{10}$H$_{16}$O$_{2}$
2715,5.68,4300,negligible,123.218,Zirconium dioxide,ZrO$_{2}$
110,,,150,,Musk xylene,C$_{12}$H$_{15}$N$_{3}$O$_{6}$
,,,,,Ilepcimide,C$_{15}$H$_{17}$NO$_{3}$
,,,,,AM-679 (FLAP inhibitor),
,,,,,Tiludronic acid,
,,,,578.52,Procyanidin B2,C$_{30}$H$_{26}$O$_{12}$
,,,,637.549,Uranium pentabromide,UBr$_{5}$
,,,,255.7377,Gallium nitrate,Ga(NO$_{3}$)$_{3}$
,,,,,Cafaminol,C$_{11}$H$_{17}$N$_{5}$O$_{3}$
,,,,,Telaprevir,C$_{36}$H$_{53}$N$_{7}$O$_{6}$
,,,,,Metformin,C$_{24}$H$_{34}$N$_{4}$O$_{5}$S
,,,,,ERDRP-0519,C$_{23}$H$_{30}$F$_{3}$N$_{5}$O$_{4}$S
,,,,784.54,Pedunculagin,C$_{34}$H$_{24}$O$_{22}$
,,,,,Ledipasvir,C$_{49}$H$_{54}$F$_{2}$N$_{8}$O$_{6}$
,,,,1125.29,Siamenoside I,C$_{54}$H$_{92}$O$_{24}$
,1.22,30-32,Reacts with water,,Diethylaminosulfur trifluoride,C$_{4}$H$_{10}$F$_{3}$NS
,,,,330.29,Rhamnazin,C$_{17}$H$_{14}$O$_{7}$
,,,,,L-759 633,
,,,,,Methylenedioxyphenethylamine,C$_{9}$H$_{11}$NO$_{2}$
,,,,,Nimetazepam,C$_{16}$H$_{13}$N$_{3}$O$_{3}$
,,,,280,Tetrahydroxy-1 4-benzoquinone bisoxalate,C$_{10}$O$_{10}$
,,,,,VIR-576,C$_{224}$H$_{322}$N$_{42}$O$_{51}$S$_{2}$
,,,insoluble,,Tetrakis(pyridine)silver(II) peroxydisulfate,C$_{20}$H$_{20}$N$_{4}$AgS$_{2}$O$_{8}$
-32,0.87,210,Insoluble,310.51,Ethyl oleate,C$_{20}$H$_{38}$O$_{2}$
,,,,,Mannoheptulose,C$_{7}$H$_{14}$O$_{7}$
,,,,,N-Oxalylglycine,C$_{4}$H$_{5}$NO$_{5}$
,,,,,WAY-317 538,
,,,,,Nicocodeine,C$_{24}$H$_{24}$N$_{2}$O$_{4}$
1789,5.758,2627,,66.9409,Vanadium(II) oxide,VO
64-66,,,,,Phenyl-2-nitropropene,C$_{9}$H$_{9}$NO$_{2}$
,,,,,Perphenazine,C$_{21}$H$_{26}$ClN$_{3}$OS
563.7,1.5955,1496,48.15,49.0072,Sodium cyanide,NaCN
-27.7,1.232,121,0.1% (20$^{\circ}$C),,Propylene glycol dinitrate,C$_{3}$H$_{6}$N$_{2}$O$_{6}$
,,,,,Ibudilast,C$_{14}$H$_{18}$N$_{2}$O
-46,,128,,,Triethylaluminium,C$_{12}$H$_{30}$Al$_{2}$
,,,,,Setastine,C$_{22}$H$_{28}$ClNO
,,,,,Deoxyadenosine triphosphate,C$_{10}$H$_{16}$N$_{5}$O$_{12}$P$_{3}$
,,,,,Rupatadine,C$_{26}$H$_{26}$ClN$_{3}$
,,,,,Polythiazyl,(SN)$_{x}$
,,,,222.25,Trimethylsilyl trifluoromethanesulfonate,C$_{4}$H$_{9}$F$_{3}$O$_{3}$SSi
,,,,,Fosinopril,C$_{30}$H$_{46}$NO$_{7}$P
136,,,,,Voacangine,C$_{22}$H$_{28}$N$_{2}$O$_{3}$
,0.932,,150,,Endothion,C$_{9}$H$_{13}$O$_{6}$PS
,,,,,Ofatumumab,C$_{6480}$H$_{10022}$N$_{1742}$O$_{2020}$S$_{44}$
,,,,,Pingyangmycin,C$_{57}$H$_{89}$N$_{19}$O$_{21}$S$_{2}$
,,,,,Nicotine,C$_{10}$H$_{14}$N$_{2}$
-34,,68,decomposition,,Trimethyl borate,C$_{3}$H$_{9}$O$_{3}$B
,,,,,Heptadecane,C$_{17}$H$_{36}$
-93.66,,,15.22,,Bromomethane,CH$_{3}$Br
,,,,,Isoflurane,C$_{3}$H$_{2}$ClF$_{5}$O
,,,,345.336,Thiamine monophosphate,C$_{12}$H$_{18}$N$_{4}$O$_{4}$PS+
175-176,,,,,Acetylenedicarboxylic acid,C$_{4}$H$_{2}$O$_{4}$
-38,1.51,158,Insoluble,,Ethyl bromoacetate,C$_{4}$H$_{7}$BrO$_{2}$
,,,,,Thiamphenicol,C$_{12}$H$_{15}$Cl$_{2}$NO$_{5}$S
,,,,,Lu AA-33810,
,,,,,Carumonam,C$_{12}$H$_{14}$N$_{6}$O$_{10}$S$_{2}$
,,,,,Nafcillin,C$_{21}$H$_{22}$N$_{2}$O$_{5}$S
,,,,,Dexfenfluramine,C$_{12}$H$_{16}$F$_{3}$N
,,,,338.44,Resmethrin,C$_{22}$H$_{26}$O$_{3}$
26.5,1.493,130,miscible,66,Hypophosphorous acid,H$_{3}$PO$_{2}$
,,,,,Ethcathinone,C$_{11}$H$_{15}$NO
,,,,500.83,Myrtillin,C$_{21}$H$_{21}$ClO$_{12}$
,,,,,Trypanothione,C$_{27}$H$_{49}$N$_{9}$O$_{10}$S$_{2}$
321,,,1,212.25,Harmine,C$_{13}$H$_{12}$N$_{2}$O
,,,,,Hachimycin,C$_{58}$H$_{84}$N$_{2}$O$_{18}$
,,,,,C4mim,C$_{8}$H$_{15}$N$^{+}_{2}$
,,,Soluble,,Phloxine,C$_{20}$H$_{2}$Br$_{4}$Cl$_{4}$Na$_{2}$O$_{5}$
176-184,0.941,654.7,Insoluble,,Beta-Carotene,C$_{40}$H$_{56}$
,,,,168.2,Lineatin,C$_{10}$H$_{16}$O$_{2}$
,,,,106.08,Glyceric acid,C$_{3}$H$_{6}$O$_{4}$
,,,,577.67,Gold triiodide,AuI$_{3}$
,0.8956,159-160,,,Indolizidine,C$_{8}$H$_{15}$N
,,,,,Tulobuterol,C$_{12}$H$_{18}$ClNO
721,2.67,1507,82,195.26,Yttrium(III) chloride,YCl$_{3}$
,,,,,Geranylfarnesyl pyrophosphate,C$_{25}$H$_{41}$O$_{7}$P$^{-3}_{2}$
125,,,,182.22,Dimercaptosuccinic acid,C$_{4}$H$_{6}$O$_{4}$S$_{2}$
115-135,0.91-0.96,,,,Tartaric acid,(C$_{2}$H$_{4}$)$_{n}$
,,,,,Trastuzumab emtansine,
135,,,,,Hexanitroethane,C$_{2}$N$_{6}$O$_{12}$
,,,,,Motretinide,C$_{23}$H$_{31}$NO$_{2}$
-65,0.79,63,,72.11,Isobutyraldehyde,C$_{4}$H$_{8}$O
87,,,,,N-Ethyltryptamine,C$_{12}$H$_{16}$N$_{2}$
,,,,,CAR-302 196,
,,,,,Oxalosuccinic acid,C$_{6}$H$_{6}$O$_{7}$
,,,,280.32,Albifylline,C$_{13}$H$_{20}$N$_{4}$O$_{3}$
,,,,,Paramethasone,C$_{22}$H$_{29}$FO$_{5}$
,,,,,Chlortetracycline,C$_{22}$H$_{23}$ClN$_{2}$O$_{8}$
54-72.5,0.862,,Insoluble,,Stearin,C$_{57}$H$_{110}$O$_{6}$
94-95,,,,,Meldrum's acid,C$_{6}$H$_{8}$O$_{4}$
232-233,2.508,,1000,404.81,Thiomersal,C$_{9}$H$_{9}$HgNaO$_{2}$S
,,,,217.22,Mivazerol,C$_{11}$H$_{11}$N$_{3}$O$_{2}$
,,,,196.02,Ammonium orthomolybdate,(NH$_{4}$)$_{2}$MoO$_{4}$
,,,,283.32,Morphinone,C$_{4}$H$_{8}$
,,,,,Doxazosin,C$_{23}$H$_{25}$N$_{5}$O$_{5}$
,,,,1835.24,Roburin A,C$_{82}$H$_{50}$O$_{50}$
,,,,,Azapetine,C$_{17}$H$_{17}$N
,,,,,SNC-80,C$_{28}$H$_{39}$N$_{3}$O$_{2}$
48,,,,,Cetostearyl alcohol,"CH$_{3}$(CH$_{2}$)$_{n}$OHnvariable,typically15-17"
,,,,,Hydroxymethylpentylcyclohexenecarboxaldehyde,C$_{13}$H$_{22}$O$_{2}$
,,,,,Obidoxime,C14H16N4O3charge+2
,,,,257.95,Triphosphoric acid,H$_{5}$P$_{3}$O$_{10}$
,,,,,TRIMU 5,C$_{19}$H$_{30}$N$_{4}$O$_{4}$
,,,,1188.4,Eledoisin,C$_{54}$H$_{85}$N$_{13}$O$_{15}$S
,,,,298.5,Tuberculostearic acid,C$_{19}$H$_{38}$O$_{2}$
,,,,,Nitronium ion,NO$^{+}_{2}$
,,,,,WAY-100 635,
,,136-139,30,322.318922,Sulfotep,C$_{8}$H$_{20}$O$_{5}$P$_{2}$S$_{2}$
,,,,,POCOP,C$_{30}$H$_{24}$O$_{2}$P$_{2}$
,,,,286.27,Kushenin,C$_{16}$H$_{14}$O$_{5}$
,,,,,Catechin-7-O-glucoside,C$_{21}$H$_{24}$O
,,,,,Cyclohexanehexone,C$_{6}$O$_{6}$
,,,,,Propidium iodide,C$_{27}$H$_{34}$I$_{2}$N$_{4}$
,,,,235.279,Propynyl (psychedelic),C$_{13}$H$_{17}$NO$_{3}$
,,,,,Ceftibuten,C$_{15}$H$_{14}$N$_{4}$O$_{6}$S$_{2}$
,,479,,247.2,Alpha-Difluoromethyl-DOPA,C$_{10}$H$_{11}$F$_{2}$NO$_{4}$
,,,,,Esketamine,C$_{13}$H$_{16}$ClNO
,,,Soluble,96.04,Hydroxylammonium nitrate,H$_{4}$N$_{2}$O$_{4}$
,,,,,Nabitan,C$_{35}$H$_{52}$N$_{2}$O$_{3}$
187-188,,,,236.22,Coumestan,C$_{15}$H$_{8}$O$_{3}$
,,,,,Macbecin,C$_{30}$H$_{42}$N$_{2}$O$_{8}$
,,,,,Phenylsilatrane,C$_{12}$H$_{17}$NO$_{3}$Si
,,,,,Reserpine,C$_{33}$H$_{40}$N$_{2}$O$_{9}$
,2.49,,5.07,244.95,Cobalt(III) nitrate,Co(NO$_{3}$)$_{3}$
,,,,,Amphetaminil,C$_{17}$H$_{18}$N$_{2}$
,,,,,Albiglutide,C$_{3232}$H$_{5032}$N$_{864}$O$_{979}$S$_{4}$
-164,,-152,0.0098,,Nitric oxide,NO
,,,,,Setazindol,C$_{15}$H$_{16}$ClNO
,,,,,Imidazol-4-one-5-propionic acid,C$_{6}$H$_{8}$N$_{2}$O$_{3}$
-83.6,,19.5,miscible,,Hydrogen fluoride,HF
160,,,Insoluble,1244.24,Tetrakis(triphenylphosphine)platinum(0),C$_{72}$H$_{60}$P$_{4}$Pt
,,,,,Ciclotizolam,C$_{20}$H$_{18}$BrClN$_{4}$S
,,,,,Adapalene,C$_{28}$H$_{28}$O$_{3}$
900,3.998,,insoluble,386.11,Zinc phosphate,Zn$_{3}$(PO$_{4}$)$_{2}$
2100,,,decomposes,,Beryllium carbide,CBe$_{2}$
,,,,,Clorgiline,C$_{13}$H$_{15}$Cl$_{2}$NO
239-241,,,organic solvents,,BINAP,C$_{44}$H$_{32}$P$_{2}$
,,,,,Butyl PBD,C$_{24}$H$_{22}$N$_{2}$O
95,,375.191,,,Aminocarb,C$_{11}$H$_{16}$N$_{2}$O$_{2}$
,,,Insoluble,,NS102,C$_{12}$H$_{11}$N$_{3}$O$_{4}$
300,,,0.0006g/100mL (at 20 $^{\circ}$C),,Uric acid,C$_{5}$H$_{4}$N$_{4}$O$_{3}$
,,,,,Trimazosin,C$_{20}$H$_{29}$N$_{5}$O$_{6}$
,,,,,Cinolazepam,C$_{18}$H$_{13}$ClFN$_{3}$O$_{2}$
1923,,,3.48,153.326,Barium oxide,BaO
153,,,,166.17,Fucitol,C$_{22}$H$_{30}$O$_{5}$
,,,,,O-1057,C$_{32}$H$_{46}$N$_{2}$O$_{4}$
,,,,,Butalamine,C$_{18}$H$_{28}$N$_{4}$O
-53,,171,41.3,,Cyclohexenone,C$_{6}$H$_{8}$O
74,,176-177,0.3,,Para-Dimethylaminobenzaldehyde,C$_{9}$H$_{11}$NO
61.5-62.5,,,,,Convolutindole A,C$_{14}$H$_{17}$Br$_{3}$N$_{2}$O$_{2}$
191-194,1.63,,,126.13,Isethionic acid,C$_{2}$H$_{6}$O$_{4}$S
,,,,581.4896,Nutlin,C$_{30}$H$_{30}$C$_{l2}$N$_{4}$O$_{4}$
,,,,,SB-236057,C$_{33}$H$_{34}$N$_{4}$O$_{3}$
,,,,,Aceprometazine,C$_{19}$H$_{22}$N$_{2}$OS
-2,,166,,,Coniine,C$_{8}$H$_{17}$N
-7,0.856,290-410,insoluble,246.43,Dodecylbenzene,C$_{18}$H$_{30}$
,,,,,Revospirone,C$_{18}$H$_{21}$N$_{5}$O$_{3}$S
758,4.13,1600,0.967,250.598,Neodymium(III) chloride,"NdCl$_{3}$,"
,,,,,Tricarbon,C$_{3}$
,,,,328.27,Bergenin,C$_{14}$H$_{16}$O$_{9}$
213,4.57,850,31,156.69,Tin(II) fluoride,SnF$_{2}$
,,,,,Arnolol,C$_{14}$H$_{23}$NO$_{3}$
,,,,,Samatasvir,C$_{47}$H$_{48}$N$_{8}$O$_{6}$S$_{2}$
,,,,,RU-28306,C$_{13}$H$_{16}$N$_{2}$
,,,,,Famciclovir,C$_{14}$H$_{19}$N$_{5}$O$_{4}$
,,,,,Polyozellin,C$_{22}$H$_{14}$O$_{10}$
,,,,,Gold(I III) chloride,Au$_{4}$Cl$_{8}$
254,3.9,,350,339.785,Chloroauric acid,HAuCl$_{4}$
,1.42,,,,Aluminium acetylacetonate,AlC$_{15}$H$_{21}$O$_{6}$
-45,,59-60,miscible,,Methyl isocyanide,C$_{2}$H$_{3}$N
,,,,,Dexmethylphenidate,C$_{14}$H$_{19}$NO$_{2}$
345,1.574,,32.4,126.12,Melamine,C$_{3}$H$_{6}$N$_{6}$
,,,,268.26,Pratol,C$_{16}$H$_{12}$O$_{4}$
,,,,,Collagenase clostridium histolyticum,
,,,,354.35,Sesamin,C$_{20}$H$_{18}$O$_{6}$
,,,,,TP-13,C$_{19}$H$_{19}$N$_{7}$O
,,,,,Phenyl-C61-butyric acid methyl ester,C$_{72}$H$_{14}$O$_{2}$
,,,,,Alclometasone,C$_{28}$H$_{37}$ClO$_{7}$
,,,,,Cyclobenzaprine,C$_{20}$H$_{21}$N
,,,,408.40708,Vat Yellow 1,C$_{28}$H$_{12}$O$_{2}$N$_{2}$
,,,,,Faxeladol,C$_{15}$H$_{23}$NO
,,,,,Enilospirone,C$_{15}$H$_{18}$ClNO$_{3}$
,,,,,PipISB,C$_{27}$H$_{26}$FN$_{3}$O$_{3}$S
,,,,,Amixetrine,C$_{17}$H$_{27}$NO
52-54,1.53,377,insoluble,353.07,Triphenylstibine,C$_{18}$H$_{15}$Sb
8,,114,reacts with water,,Trimethylsilyl cyanide,C$_{4}$H$_{9}$SiN
,,,,,Aminocaproic acid,
50,,,,210.27,Dihydrochalcone,C$_{15}$H$_{14}$O
,,,,454.29,Flavogallonic acid dilactone,C$_{21}$H$_{10}$O$_{12}$
,,,,,Spiradoline,C$_{22}$H$_{30}$Cl$_{2}$N$_{2}$O$_{2}$
,,,,,Caroxazone,C$_{10}$H$_{10}$N$_{2}$O$_{3}$
,,,,,Letrozole,C$_{17}$H$_{11}$N$_{5}$
,0.97,249-251,,,Geranic acid,C$_{10}$H$_{16}$O$_{2}$
,,,400,,Calcium lactate gluconate,C$_{9}$H$_{16}$CaO$_{10}$
,,,,,Propylheptyl alcohol,C$_{10}$H$_{22}$O
,,,,,Crotamiton,C$_{13}$H$_{17}$NO
,,,,,Mannosulfan,C$_{10}$H$_{22}$O$_{14}$S$_{4}$
,,,,184.151,Phosphocholine,C$_{5}$H$_{15}$NO$_{4}$P$^{+}$
,,,,,Paramethadione,C$_{7}$H$_{11}$NO$_{3}$
,,,,,Propentofylline,C$_{15}$H$_{22}$N$_{4}$O$_{3}$
,,,,,Timiperone,C$_{22}$H$_{24}$FN$_{3}$OS
,,,,,Pronethalol,C$_{15}$H$_{19}$NO
,,,,,Oxepane,C$_{6}$H$_{12}$O