Property Melting Point,Property Density,Property Boiling Point,Property Solubility,Property Molar Mass,Name,formula
205,4.39,,0.0093,,Nickel(II) carbonate,NiCO$_{3}$
272,,,5.2,468.776,Thallium(I) carbonate,Tl$_{2}$CO$_{3}$
,,,,,Amobarbital,C$_{11}$H$_{18}$N$_{2}$O$_{3}$
,,,,,Ciclesonide,C$_{32}$H$_{44}$O$_{7}$
1542,3.064,,,270.193,Tricalcium aluminate,"Ca$_{3}$Al$_{2}$O$_{6}$,or3CaO.Al$_{2}$O$_{3}$"
,,,,,Colistin,C$_{52}$H$_{98}$N$_{16}$O$_{13}$
1360,3.85,,insoluble,150.82,Manganese(II) titanate,MnTiO$_{3}$
,,,,742.72,Eleutheroside D,C$_{34}$H$_{46}$O$_{18}$
261,,,Insoluble,276.33,Anthanthrene,C$_{22}$H$_{12}$
,,,,,FGI-103,C$_{19}$H$_{16}$N$_{6}$O
28,1.374,156,,,Triphenyltin hydride,C$_{18}$H$_{16}$Sn
159-163,1.9,,0.15,241.47,BCDMH,C$_{5}$H$_{6}$BrClN$_{2}$O$_{2}$
-22,1.49,,,152.1,Ethylene glycol dinitrate,C$_{2}$H$_{4}$N$_{2}$O$_{6}$
96,,decomposition at about 400,,130.19,Bullvalene,C$_{10}$H$_{10}$
,,,,,Laniquidar,C$_{37}$H$_{36}$N$_{4}$O$_{3}$
,5.094,,,,Hafnium tetrabromide,Br$_{4}$Hf
51,,112,Decomposes,,N-tert-Butylbenzenesulfinimidoyl chloride,C$_{10}$H$_{14}$ClNS
270,4.53,,37.65,,Lead(II) nitrate,Pb(NO$_{3}$)$_{2}$
,,,,156.55,Chlorosarin,C$_{4}$H$_{10}$ClO$_{2}$P
,,,,,Barceloneic acid A,C$_{16}$H$_{16}$O$_{7}$
256,,,approximately 10,301.3,Nocodazole,C$_{14}$H$_{11}$N$_{3}$O$_{3}$S
,,,,260.2,Folin's reagent,C$_{10}$H$_{5}$NaO$_{5}$S
,,,,,Taxagifine,C$_{37}$H$_{44}$O$_{13}$
,,,,432.55,Hydrocortisone 21-butyrate,C$_{25}$H$_{36}$O$_{6}$
,,,,,Ro48-8684,C$_{22}$H$_{26}$FN$_{5}$O$_{2}$
66-67,2.23,,,409.42,Diphenyl ditelluride,C$_{12}$H$_{10}$Te$_{2}$
,,,,,Chlorambucil,C$_{14}$H$_{19}$Cl$_{2}$NO$_{2}$
,,,,,AMG-1,C$_{23}$H$_{30}$O$_{2}$
,,,decomposes,152.2,Potassium peroxymonosulfate,KHSO$_{5}$
,,,,,Zileuton,C$_{11}$H$_{12}$N$_{2}$O$_{2}$S
110-115,1.012,,,216.77,Octadecaborane,B$_{18}$H$_{22}$
,,,,,Atromentin,C$_{18}$H$_{12}$O$_{6}$
-10,,266,,,Isoeugenol,C$_{10}$H$_{12}$O$_{2}$
,,,,,Hydromorphone,C$_{17}$H$_{19}$NO$_{3}$
,,,,,Sulindac,C$_{20}$H$_{17}$FO$_{3}$S
-45,,,,145.903,Iodine monofluoride,IF
,,,,,SR9011,C$_{23}$H$_{31}$ClN$_{4}$O$_{3}$S
,,,,362.77,Coumaphos,C$_{14}$H$_{16}$ClO$_{5}$PS
32,,330,,,Nonadecane,C$_{19}$H$_{40}$
60,,,2,,Cyfluthrin,C$_{22}$H$_{18}$Cl$_{2}$FNO$_{3}$
,,,,,Chlormidazole,C$_{15}$H$_{13}$ClN$_{2}$
,,,,,RTI-120,C$_{22}$H$_{25}$NO$_{2}$
,,,,,Mestanolone,C$_{20}$H$_{32}$O$_{2}$
,,,,,Piperacillin,C$_{23}$H$_{27}$N$_{5}$O$_{7}$S
,,,,,Polybenzimidazole fiber,(C$_{20}$H$_{12}$N$_{4)n}$
148-151,,,,,Phenylmercury acetate,C$_{8}$H$_{8}$HgO$_{2}$
,,,,356.05,Tetradifon,C$_{12}$H$_{6}$Cl$_{4}$O$_{2}$S
,,,,,Difemerine,C$_{20}$H$_{25}$NO$_{3}$
182,,,,410.45,Mangostin,C$_{24}$H$_{26}$O$_{6}$
,,,,,Lucimycin,C$_{36}$H$_{53}$NO$_{13}$
,,,,,Cepharanthine,C$_{37}$H$_{38}$N$_{2}$O$_{6}$
,,,,340.116,Fructose 2 6-bisphosphate,C$_{6}$H$_{14}$O$_{12}$P$_{2}$
,,,,,Acotiamide,C$_{21}$H$_{30}$N$_{4}$O$_{5}$S
,,,,,Lorglumide,C$_{22}$H$_{32}$Cl$_{2}$N$_{2}$O$_{4}$
77,1.59,,0.1,,Bromopropylate,C$_{17}$H$_{16}$Br$_{2}$O$_{3}$
,3.72,,reacts,101.9031,Aluminium arsenide,AlAs
,,,,,RB-64,C$_{24}$H$_{27}$NO$_{8}$S
,,,,167.95395,Sodium hexafluorophosphate,F$_{6}$NaP
,,,,,Lentinan,C$_{42}$H$_{72}$O$_{36}$
,,,,,Oxaflozane,C$_{14}$H$_{18}$F$_{3}$NO
-135.9,,6.7,,,Trimethylsilane,C$_{3}$H$_{10}$Si
,0.949,84,,,Crotyl chloride,C$_{4}$H$_{7}$Cl
91.8,,280,Insoluble,,Acenaphthylene,C$_{12}$H$_{8}$
,,,,,Apremilast,C$_{22}$H$_{24}$N$_{2}$O$_{7}$S
,,,,,Denaverine,C$_{24}$H$_{33}$NO$_{3}$
,,,,,Dalbraminol,C$_{17}$H$_{26}$N$_{4}$O$_{2}$
103,1.694,,,,Fructose,C$_{6}$H$_{12}$O$_{6}$
283-286,,397-400,hygroscopic,,Pyromellitic dianhydride,C$_{10}$H$_{2}$O$_{6}$
,,,,255.98,Cacodyl oxide,C$_{4}$H$_{12}$As$_{2}$O
,,,insoluble,212.86,Manganese diselenide,MnSe$_{2}$
,,,>40,147.19,Meldonium,C$_{6}$H$_{15}$N$_{2}$O$^{+}_{2}$
,,,,,Fluconazole,C$_{13}$H$_{12}$F$_{2}$N$_{6}$O
,,,,,Alpha-N N-Trimethyltryptamine,
,,,,,Aminohippuric acid,
,,,,,Herniarin,C$_{10}$H$_{8}$O$_{3}$
,,,,,Butyrate,C$_{4}$H$_{7}$O$^{-}_{2}$
,,,,,Tert-Butyl alcohol,C$_{4}$H$_{10}$O
118-121,,,,221.21,N-Acetylmannosamine,C$_{8}$H$_{15}$NO$_{6}$
214,,,,,Rubidium hydrogen sulfate,RbHSO$_{4}$
196,,364,,161.156,Alpha-Aminoadipic acid,C$_{6}$H$_{11}$NO$_{4}$
,,,,239.69,AEBSF,C$_{8}$H$_{10}$FNO$_{2}$S.HCl
,,,,952.64,Geraniin,C$_{41}$H$_{28}$O$_{27}$
78-80,,,,124.14,Amidol,C$_{6}$H$_{8}$N$_{2}$O
,,,,521.6,Morphiceptin,C$_{28}$H$_{35}$N$_{5}$O$_{5}$
628,2.484,1500,soluble,,Sodium hexametaphosphate,Na$_{6}$P$_{6}$O$_{18}$
,,,,,Dexamethasone,C$_{22}$H$_{29}$FO$_{5}$
250,1.7,,7.7,141.96,Disodium phosphate,Na$_{2}$HPO$_{4}$
,,,,,Imazapic,C$_{14}$H$_{17}$N$_{3}$O$_{3}$
123-126,,> 360,,197.24,Aniline Yellow,C$_{6}$H$_{5}$NNC$_{6}$H$_{4}$NH$_{2}$
50,0.8,,,136.24,Ocimene,C$_{10}$H$_{16}$
560,3.89,,4.74,214.001,Potassium iodate,KIO$_{3}$
1494,3.74,,0.0011,147.63,Strontium carbonate,SrCO$_{3}$
,,,,,Naphthylaminopropane,C$_{13}$H$_{15}$N
,,,,143.89,Hypoiodous acid,HIO
350,2.958,,0.0106,,Magnesium carbonate,MgCO$_{3}$
355,,,,,Polonium dichloride,PoCl$_{2}$
,,,,,Quinestrol,C$_{25}$H$_{32}$O$_{2}$
,,,,,Lomevactone,C$_{18}$H$_{17}$ClO$_{2}$
,,,soluble,,Sodium methanethiolate,CH$_{3}$SNa
,,,,,Thymectacin,C$_{21}$H$_{25}$BrN$_{3}$O$_{9}$P
,,,,518.561,Lurtotecan,C$_{28}$H$_{30}$N$_{4}$O$_{6}$
85-89,,,,,Ptaquiloside,C$_{20}$H$_{30}$O$_{8}$
,,,,258.27,Guibourtinidol,C$_{15}$H$_{14}$O$_{4}$
,,,,,Nonane,C$_{9}$H$_{20}$
96.6,4.35,288,reacts,361.472,Antimony tribromide,SbBr$_{3}$
-95,0.8763,52-53,reacts to form dangerous hydrazoic acid,,Trimethylsilyl azide,C$_{3}$H$_{9}$N$_{3}$Si
,0.917,54,9% (17.78$^{\circ}$C),,Ethyl formate,C$_{3}$H$_{6}$O$_{2}$
,,,,1188.38,Kallidin,C$_{56}$H$_{85}$N$_{17}$O$_{12}$
,,,,,Amiphenazole,C$_{9}$H$_{9}$N$_{3}$S
99,,,,,Azidamfenicol,C$_{11}$H$_{13}$N$_{5}$O$_{5}$
,,,,,Icatibant,C$_{59}$H$_{89}$N$_{19}$O$_{13}$S
,,,,,Thonzylamine,C$_{16}$H$_{22}$N$_{4}$O
,,,,,Tetronal,C$_{9}$H$_{20}$O$_{4}$S$_{2}$
-157.7,1.486,-29.8,,,Dichlorodifluoromethane,CCl$_{2}$F$_{2}$
,,,,,Ajmaline,C$_{20}$H$_{26}$N$_{2}$O$_{2}$
,,,,415.566,Piericidin A,C$_{25}$H$_{37}$NO$_{4}$
,,,,,Sertaconazole,C$_{20}$H$_{15}$Cl$_{3}$N$_{2}$OS
149.5,1.305,170,128,76.122,Ammonium thiocyanate,NH$_{4}$SCN
,,,,,Artemotil,C$_{17}$H$_{28}$O$_{5}$
,2.44,,149.25,174.2,Dipotassium phosphate,K$_{2}$HPO$_{4}$
,,,,,Corey lactone 4-phenylbenzoate,
,,,,,Dioxaphetyl butyrate,
965,,,,,Gallium(II) sulfide,GaS$^{.}$
,,,,,Sarafloxacin,C$_{20}$H$_{17}$F$_{2}$N$_{3}$O$_{3}$
,,,,,Fluorotriiodomethane,CFI$_{3}$
,0.853,130-132,,86.132,Isoprenol,C$_{5}$H$_{10}$O
188-192,1.698,500.9,0.01962,,TCPO,C$_{14}$H$_{4}$Cl$_{6}$O$_{4}$
,,,,,Etilamfetamine,C$_{11}$H$_{17}$N
,,,,,Carbimazole,C$_{7}$H$_{10}$N$_{2}$O$_{2}$S
,,,,,Phenprocoumon,C$_{18}$H$_{16}$O$_{3}$
87,,,,,N-Methyltryptamine,C$_{11}$H$_{14}$N$_{2}$
72-73,3.293,236,reacts,187.898,Niobium(V) fluoride,NbF$_{5}$
,,,,224.98,Polonium monoxide,PoO
-117.2,,131.1,"slightly soluble, 28",88.148,Isoamyl alcohol,C$_{5}$H$_{12}$O
73,1.160$\pm$0.10,,,195.22,CR gas,C$_{13}$H$_{9}$NO
,,,,,Pramipexole,C$_{10}$H$_{17}$N$_{3}$S
,,,,,Bapineuzumab,C$_{6466}$H$_{10018}$N$_{1734}$O$_{2026}$S$_{44}$
,,,,287.31,Trolamine salicylate,C$_{13}$H$_{21}$NO$_{6}$
,,,,,Kappadione,C$_{11}$H$_{8}$Na$_{4}$O$_{8}$P$_{2}$
14-15,0.951,79-81,,,Trans-1 2-Diaminocyclohexane,C$_{6}$H$_{14}$N$_{2}$
,,,,,Cannabigerol,C$_{21}$H$_{32}$O$_{2}$
,,,,,Quisinostat,C$_{21}$H$_{26}$N$_{6}$O$_{2}$
,4.38,,reacts with water,332.041,Osmium(IV) chloride,OsCl$_{4}$
232,,,74,169.111,Monosodium glutamate,C$_{5}$H$_{8}$NO$_{4}$Na
tetrahydrate decomposes at 160,1.817,,0.037,190.16484,Calcium tartrate,CaC$_{4}$H$_{4}$O$_{6}$
75,,157,,,Ibuprofen,C$_{13}$H$_{18}$O$_{2}$
,,,,,Sodium stibogluconate,
-2,,205,0.25,161.03,Benzal chloride,C$_{7}$H$_{6}$Cl$_{2}$
,,296,,,Pristane,C$_{19}$H$_{40}$
110,,,0.002% (25$^{\circ}$C),230.26,Pindone,C$_{14}$H$_{14}$O$_{3}$
,,,,,Etonogestrel,C$_{22}$H$_{28}$O$_{2}$
,,,,319.44,JWH-251,C$_{22}$H$_{25}$NO
,,,,,Ciglitazone,C$_{18}$H$_{23}$NO$_{3}$S
,,,,237.216,Biopterin,C$_{9}$H$_{11}$N$_{5}$O$_{3}$
78.2,1.145,217.97,19,,Naphthalene,C$_{10}$H$_{8}$
,,,,,Camfetamine,C$_{14}$H$_{19}$N
,,,,304.34,Oleocanthal,C$_{17}$H$_{20}$O$_{5}$
942,5.67,,,189.74,Indium arsenide,InAs
,,,,,Methyllithium,CH$_{3}$Li
,,,,,Fosfluconazole,C$_{13}$H$_{13}$F$_{2}$N$_{6}$O$_{4}$P
,,,,,Piclozotan,C$_{23}$H$_{24}$ClN$_{3}$O$_{2}$
242,,,,,Rutin,C$_{27}$H$_{30}$O$_{16}$
,,,,,Acefurtiamine,C$_{21}$H$_{24}$N$_{4}$O$_{7}$S
37,1.337,263,Soluble in 500,,Piperonal,C$_{8}$H$_{6}$O$_{3}$
,,,,,Pivoxazepam,C$_{20}$H$_{19}$ClN$_{2}$O$_{3}$
1150,,,,842.1,Triuranium octoxide,U$_{3}$O$_{8}$
-5.1,1.135,163.75,Miscible,,Butyric acid,C$_{4}$H$_{8}$O$_{2}$
-11,1.49,122,221,,Hydrobromic acid,HBr
,,,,,Ioxaglic acid,
218.5,,,0.04% (20$^{\circ}$C),,Picloram,C$_{6}$H$_{3}$Cl$_{3}$N$_{2}$O$_{2}$
,,,,,Iprocrolol,C$_{18}$H$_{23}$NO$_{6}$
173-175,,,,,Dihydroquinine,C$_{20}$H$_{26}$N$_{2}$O$_{2}$
,,,,,RU-58841,C$_{17}$H$_{18}$F$_{3}$N$_{3}$O$_{3}$
,,,,,Tetra-tert-butylethylene,C$_{18}$H$_{36}$
,,,,395.948,Uranium diselenide,USe$_{2}$
,,,"slightly soluble in hot water, insoluble in cold water and ethanol",424.44,Lithol Rubine BK,C$_{18}$H$_{12}$CaN$_{2}$O$_{6}$S
,,,,,Batanopride,C$_{17}$H$_{26}$ClN$_{3}$O$_{3}$
,,,,,Selegiline,C$_{13}$H$_{17}$N
816,,,reacts violently,42.094,Calcium hydride,CaH$_{2}$
,,,,,Monobenzone,C$_{13}$H$_{12}$O$_{2}$
,,,,,Proxibarbital,C$_{10}$H$_{14}$N$_{2}$O$_{4}$
244,,446.3,,167.16,Glycin,C$_{8}$H$_{9}$NO$_{3}$
,,,,681.13,Cholesteryl oleyl carbonate,C$_{46}$H$_{80}$O$_{3}$
,0.987,,,,Sapotalin,C$_{13}$H$_{14}$
,,,980,,Potassium ascorbate,C$_{6}$H$_{7}$KO$_{6}$
,,,,,Oxametacin,C$_{19}$H$_{17}$ClN$_{2}$O$_{4}$
> 300,,,,,Biliverdin,C$_{33}$H$_{34}$N$_{4}$O$_{6}$
91,,,Very soluble,,Deoxyribose,C$_{5}$H$_{10}$O$_{4}$
,,,,,Canrenone,C$_{22}$H$_{28}$O$_{3}$
,,,,,Telapristone,C$_{31}$H$_{39}$NO$_{5}$
18,0.9338,219,,,Terpineol,C$_{10}$H$_{18}$O
,,,,,Vinpocetine,C$_{22}$H$_{26}$N$_{2}$O$_{2}$
,,,,322.69,Robinetinidin,C$_{15}$H$_{11}$ClO$_{6}$(C$_{15}$H$_{11}$O$^{+}_{6}$Cl$^{-}$)
,,,,,L-745 870,
,,,,,Oxmetidine,C$_{19}$H$_{21}$N$_{5}$O$_{3}$S
,,,,,Idose,C$_{6}$H$_{12}$O$_{6}$
540,4.519,,0.09,389.88,Calcium iodate,Ca(IO$_{3}$)$_{2}$
,,,,,Tropisetron,C$_{17}$H$_{20}$N$_{2}$O$_{2}$
65-66,,,,,Sulfolene,C$_{4}$H$_{6}$SO$_{2}$
170,,,,,Azaprocin,C$_{18}$H$_{24}$N$_{2}$O
80-81,,,,,Acevaltrate,C$_{24}$H$_{32}$O$_{10}$
,,,,420.39,Rhaponticin,C$_{21}$H$_{24}$O$_{9}$
,,,,341.4,Pavine (molecule),C$_{20}$H$_{23}$NO$_{4}$
,,,,,A-366 833,
,,,,,Pivampicillin,C$_{22}$H$_{29}$N$_{3}$O$_{6}$S
,,,,,BHFF,C$_{17}$H$_{21}$F$_{3}$O$_{3}$
,,,,,Lynestrenol,C$_{20}$H$_{28}$O
,,,,,Pyrovalerone,C$_{16}$H$_{23}$NO
59,,,25,,Salicylaldoxime,C$_{7}$H$_{7}$NO$_{2}$
-23,,129,,,Pyrrole,C$_{4}$H$_{5}$N
,,,,,Neuropeptide Y,
,,,,,Benexate,C$_{23}$H$_{27}$N$_{3}$O$_{4}$
,,,,438.04,Org 20599,C$_{25}$H$_{40}$ClNO$_{3}$
-70,,102,10,,Perfluoro-1 3-dimethylcyclohexane,C$_{8}$F$_{16}$
1540,2.9,,0.01%  (20$^{\circ}$C),,Calcium silicate,Ca$_{2}$SiO$_{4}$
,,,,,Gliquidone,C$_{27}$H$_{33}$N$_{3}$O$_{6}$S
858,3.84,1000,very soluble,245.26,Lanthanum(III) chloride,LaCl$_{3}$
,0.99,,,,Diisoheptyl phthalate,C$_{22}$H$_{34}$O$_{4}$
,,,,109.15,Hypotaurine,C$_{2}$H$_{7}$NO$_{2}$S
,,207-209,,,Decanal,C$_{10}$H$_{20}$O
,0.932,,,,Cyanophos,C$_{9}$H$_{10}$NO$_{3}$PS
,,,,,Fluticasone,C$_{22}$H$_{27}$F$_{3}$O$_{4}$S
,3,,soluble,157.3,Vanadium(III) chloride,VCl$_{3}$
,,,,,Tritoqualine,C$_{26}$H$_{32}$N$_{2}$O$_{8}$
-15,,169,"0.08% in water, 25$^{\circ}$C",110.19,Thiophenol,C$_{6}$H$_{6}$S
,,,,,Figitumumab,C$_{6462}$H$_{9948}$N$_{1736}$O$_{2020}$S$_{54}$
535,5.026,,insoluble,86.9368,Manganese dioxide,MnO$_{2}$
203,,,68.9,342.296,Trehalose,C$_{12}$H$_{22}$O$_{11}$(anhydride)
168.5-169.0,,,,,Para-tert-Butylbenzoic acid,C$_{11}$H$_{14}$O$_{2}$
,,,,,Baicalin,C$_{21}$H$_{18}$O
,,,0.39,665.725,Natamycin,C$_{33}$H$_{47}$NO$_{13}$
,,,,,Vineridine,C$_{20}$H$_{26}$N$_{2}$O$_{2}$
,,,,,Calcium glucoheptonate,
1400,,,insoluble,261.893,Tantalum(III) aluminide,TaAl$_{3}$
102,,,143,,Oxalic acid,C$_{2}$H$_{2}$O$_{4}$
,,,,184.041,Phosphohydroxypyruvic acid,C$_{3}$H$_{5}$O$_{7}$P
,,,insoluble,,Thallium azide,TlN$_{3}$
,,,,,Sodium aurothiomalate,
,,,not soluble,,Paint thinner,AgCNO
,,,,,Wikipedia:WikiProject Medicine/Translation task force/RTT/Simple metoprolol,
,,,,,Ambenonium chloride,
,,,,,Fludrocortisone,C$_{21}$H$_{29}$FO$_{5}$
,,,,,Cinaciguat,C$_{36}$H$_{39}$NO$_{5}$
,,,,,Tasimelteon,C$_{15}$H$_{19}$NO$_{2}$
,,,,,Talampanel,C$_{19}$H$_{19}$N$_{3}$O$_{3}$
,,100,,310.48,Methoprene,C$_{19}$H$_{34}$O$_{3}$
,,,,,Bromochlorofluoroiodomethane,CIBrClF
,,,,,Cyclomethycaine,C$_{22}$H$_{33}$NO$_{3}$
-53,2.08,30.1,,254.1,Disulfur decafluoride,S$_{2}$F$_{10}$
,,,,,Octreotide,C$_{49}$H$_{66}$N$_{10}$O$_{10}$S$_{2}$
,,,,,Eseroline,C$_{13}$H$_{18}$N$_{2}$O
2000,2.56,,,80.865,Boron suboxide,B$_{6}$O
135,,228,,,Sorbic acid,C$_{6}$H$_{8}$O$_{2}$
5,2.04,,Miscible,,Thiocyanic acid,CHNS
2.8,2.336,140,reacts,,Antimony pentachloride,SbCl$_{5}$
,,,,,Pardoprunox,C$_{12}$H$_{15}$N$_{3}$O$_{2}$
,,,,1310,Polysorbate 80,C$_{64}$H$_{124}$O$_{26}$
52,,62,,,Plutonium hexafluoride,PuF$_{6}$
,,,,,Crizotinib,C$_{21}$H$_{22}$Cl$_{2}$FN$_{5}$O
69.3,0.9408,361,0.003,,Stearic acid,C$_{18}$H$_{36}$O$_{2}$
,,,,,Pigment Yellow 81,C$_{36}$H$_{32}$Cl$_{4}$N$_{6}$O$_{4}$
,,,,,Potassium hexacyanochromate(III),C$_{6}$CrK$_{3}$N$_{6}$
,,,,,ADX-47273,C$_{20}$H$_{17}$F$_{2}$N$_{3}$O$_{2}$
68,,,Slightly soluble,,Butylparaben,C$_{11}$H$_{14}$O$_{3}$
,,134-135,,,Zingiberene,C$_{15}$H$_{24}$
,,,Decomposes,,Disodium tetracarbonylferrate,C$_{4}$FeNa$_{2}$O$_{4}$
,,,,423.461,Gluconasturtiin,C$_{15}$H$_{21}$NO$_{9}$S$_{2}$
,,,,,CX-546,C$_{14}$H$_{17}$NO$_{3}$
,,,,,Esmolol,C$_{16}$H$_{25}$NO$_{4}$
,,,,,Suriclone,C$_{20}$H$_{20}$ClN$_{5}$O$_{3}$S$_{2}$
,,,,,Interferon alfacon-1,
,,,,626.032,Zinc protoporphyrin,C$_{34}$H$_{32}$N$_{4}$O$_{4}$Zn
-80,,116,Insoluble in water,,Cycloheptatriene,C$_{7}$H$_{8}$
,,,,240.343,Benzathine,C$_{16}$H$_{20}$N$_{2}$
,,,,,LY-235 959,
,,,,350.32,Acid orange 7,C$_{16}$H$_{11}$N$_{2}$NaO$_{4}$S(sodiumsalt)
155,,,,432.3,Tetrakis (methylammonium) hexachloroferrate (III) chloride,(CH$_{6}$N)$_{4}$(FeCl$_{6}$)Cl
,,,,,URB602,C$_{19}$H$_{21}$NO$_{2}$
169-172,,,,326.4,Dihydroquinidine,C$_{20}$H$_{26}$N$_{2}$O$_{2}$
,,,,,HA-966,C$_{4}$H$_{8}$N$_{2}$O$_{2}$
-117,,< 0,,,Hypofluorous acid,HOF
,0.946,216,,148.2,Estragole,C$_{10}$H$_{12}$O
,,,,,Phencyclidine,C$_{17}$H$_{25}$N
,,,,,CGP-37849,C$_{6}$H$_{12}$NO$_{5}$P
,,,soluble,,Resazurin,C$_{12}$H$_{7}$NO$_{4}$
,,2966,,3354.07,Nisin,C$_{143}$H$_{230}$N$_{42}$O$_{37}$S$_{7}$
,,,,557.645,Uranium tetrabromide,UBr$_{4}$
1395,3.363,,Insoluble,,Vanadium(III) fluoride,VF$_{3}$
,,,,578.52,Procyanidin B8,C$_{30}$H$_{26}$O$_{12}$
,,,,,Cefepime,C$_{19}$H$_{24}$N$_{6}$O$_{5}$S$_{2}$
,,,,363.41,Spirotryprostatin B,C$_{21}$H$_{21}$N$_{3}$O$_{3}$
,,,,,Siltuximab,C$_{6450}$H$_{9932}$N$_{1688}$O$_{2016}$S$_{50}$
,,,,,Oritavancin,C$_{86}$H$_{97}$Cl$_{3}$N$_{10}$O$_{26}$
70,1.745,,,,Endosulfan,C$_{9}$H$_{6}$Cl$_{6}$O$_{3}$S
,,,,,Flesinoxan,C$_{22}$H$_{26}$FN$_{3}$O$_{4}$
,,,,,Taltirelin,C$_{17}$H$_{31}$N$_{7}$O$_{9}$
98,,,,,Octyl gallate,C$_{15}$H$_{22}$O$_{5}$
,,,,,Rozrolimupab,C$_{12}$H$_{9}$ClFN$_{5}$
,,,,,Oxymorphazone,C$_{17}$H$_{21}$N$_{3}$O$_{3}$
,,,,,Congo red,C$_{32}$H$_{22}$N$_{6}$Na$_{2}$O$_{6}$S$_{2}$
,,,,44.053,Vinyl alcohol,C$_{2}$H$_{4}$O
,,,,,Laudexium metilsulfate,
,,,,,Mebanazine,C$_{8}$H$_{12}$N$_{2}$
,,,,,Telcagepant,C$_{26}$H$_{27}$F$_{5}$N$_{6}$O$_{3}$
,,,,370.35,Sesamolin,C$_{20}$H$_{18}$O$_{7}$
1600,,2230,,60.08,Silicon dioxide,SiO$_{2}$
,,,Soluble (120g/l),,Azorubine,C$_{20}$H$_{12}$N$_{2}$Na$_{2}$O$_{7}$S$_{2}$
,,,,,Menthoxypropanediol,C$_{13}$H$_{26}$O$_{3}$
,,,,,Metaxalone,C$_{12}$H$_{15}$NO$_{3}$
235,1.769,,70.6,132.14,Ammonium sulfate,(NH$_{4}$)$_{2}$SO$_{4}$
,,,,,Clo$\beta$sone,C$_{22}$H$_{26}$ClFO$_{4}$
,,,,208.13,Petasis reagent,C$_{12}$H$_{16}$Ti
143-144,,,good,,Linamarin,C$_{10}$H$_{17}$NO$_{6}$
,,,,,Clocortolone,C$_{27}$H$_{36}$ClFO$_{5}$
,,,,170.25,MPP+,C$_{12}$H$_{12}$N$^{+}$
65,,121,1,,Benfluralin,C$_{13}$H$_{16}$F$_{3}$N$_{3}$O$_{4}$
,,,,,Hopeaphenol,C$_{56}$H$_{42}$O$_{12}$
-103,4.5,-13.1,hydrolyzes,,Chlorine pentafluoride,ClF$_{5}$
,,,,,Acetildenafil,C$_{25}$H$_{34}$N$_{6}$O$_{3}$
,,,,,Didanosine,C$_{10}$H$_{12}$N$_{4}$O$_{3}$
,,,,406.16,Bromopentacarbonylrhenium(I),Re(CO)$_{5}$Br
,,,,,Triflubazam,C$_{17}$H$_{13}$F$_{3}$N$_{2}$O$_{2}$
,,,,906.92,Vitisin A (stilbenoid),C$_{56}$H$_{42}$O$_{12}$
,,,14% (20$^{\circ}$C),,Allyl glycidyl ether,C$_{6}$H$_{10}$O$_{2}$
455,,1547,520,,Silver chloride,AgCl
,,,,,Pazopanib,C$_{21}$H$_{23}$N$_{7}$O$_{2}$S
,,,,,Fenethylline,C$_{18}$H$_{23}$N$_{5}$O$_{2}$
,1.28,511.754,,,Olympicene,C$_{19}$H$_{12}$
817,,1890,insoluble,465.96,Bismuth(III) oxide,Bi$_{2}$O$_{3}$
,,,,734.039,Dipalmitoylphosphatidylcholine,C$_{40}$H$_{80}$NO$_{8}$P
,,,,,Isosorbide dinitrate,
,,,,,Thiazinamium metilsulfate,
,,,,751,Salinomycin,C$_{42}$H$_{70}$O$_{11}$
125-126,,,,,Horsfiline,C$_{13}$H$_{16}$N$_{2}$O$_{2}$
320-360,2.5,,0.27,129.07,Cyanuric acid,C$_{3}$H$_{3}$N$_{3}$O$_{3}$
,,,,,Capromorelin,C$_{28}$H$_{35}$N$_{5}$O$_{4}$
-78,,116-119,,,Trans-2-Methyl-2-butenal,C$_{5}$H$_{8}$O
,,,Insoluble,161.24,Zinc titanate,ZnTiO$_{3}$
,,,,,Eperezolid,C$_{18}$H$_{23}$FN$_{4}$O$_{5}$
,,,,364.48,Tetrahydrocortisone,C$_{21}$H$_{32}$O$_{5}$
349,1.6,,0.27,490.633,Kepone,C$_{10}$Cl$_{10}$O
,,,,,O6-Benzylguanine,C$_{12}$H$_{11}$N$_{5}$O
,,,,,Chromone,C$_{9}$H$_{6}$O$_{2}$
414,5.39,,103.3,273.194,Sodium perrhenate,NaReO$_{4}$
,,,,288.47,Bolenol,C$_{20}$H$_{32}$O
,,,,272.25,Butin (molecule),C$_{15}$H$_{12}$O$_{5}$
,,,,,Oxypertine,C$_{23}$H$_{29}$N$_{3}$O$_{2}$
,,,,,Glyoxal-bis(mesitylimine),C$_{20}$H$_{24}$N$_{2}$
-64,,-19,,,Sulfur chloride pentafluoride,SClF$_{5}$
,,,,,Acetate,CH$_{3}$CO$^{2-}$
,,,,,Helium hydride ion,HeH$^{+}$
,,,,,SCH-442 416,C$_{20}$H$_{19}$N$_{7}$O$_{2}$
,,,,879.384,Linolein,C$_{57}$H$_{98}$O$_{6}$
133,,,,198.173,Vanillylmandelic acid,C$_{9}$H$_{10}$O$_{5}$
,,,,,Org 25435,
,,,,,FGIN-127,C$_{28}$H$_{37}$FN$_{2}$O
,,,,,Piroctone olamine,C$_{16}$H$_{30}$N$_{2}$O$_{3}$
,,,,,Danazol,C$_{22}$H$_{27}$NO$_{2}$
82,,140,,,Raspberry ketone,C$_{10}$H$_{12}$O$_{2}$
,,,sparingly (25 $^{\circ}$C),266.334,Honokiol,C$_{18}$H$_{18}$O$_{2}$
,,100,530,,Metolachlor,C$_{15}$H$_{22}$ClNO$_{2}$
,,,,,Boromycin,C$_{45}$H$_{74}$BNO$_{15}$
,,,,,Orthonitrate,NO$^{3-}_{4}$
88,,134,Reacts,,Trimethylindium,InC$_{3}$H$_{9}$
,,,,,Lead(II IV) oxide,Pb$_{3}$O$_{4}$
,,,,,Tenocyclidine,C$_{15}$H$_{23}$NS
-62,,180-181,Slightly soluble,,Dimethyl malonate,C$_{5}$H$_{8}$O$_{4}$
,,,,,Fusidic acid,
,,,,,Cadazolid,C$_{29}$H$_{29}$F$_{2}$N$_{3}$O$_{8}$
,,,,,Bismuth subsalicylate,
,,,,215.56,Pyridinium chlorochromate,C$_{5}$H$_{5}$NHClCrO$_{3}$
,,,,,Telluride (chemistry),Te$^{2-}$
,,,,,ANG1005,C$_{20}$H$_{24}$N$_{2}$OS
,,,,,Prodine,C$_{16}$H$_{23}$NO$_{2}$
,,,,432.37,Genistin,C$_{21}$H$_{20}$O$_{10}$
,,,,290.27,Leuco-fisetinidin,C$_{15}$H$_{14}$O$_{6}$
Decomposes at 75,0.88,,,208.17,Hexamethylene triperoxide diamine,C$_{6}$H$_{12}$N$_{2}$O$_{6}$
-24.5,,148,decomposes,192.75,Vanadium tetrachloride,VCl$_{4}$
,,,,,Edoxudine,C$_{11}$H$_{16}$N$_{2}$O$_{5}$
,,,soluble,,Glycolonitrile,C$_{2}$H$_{3}$NO
,,,,,Golimumab,C$_{6530}$H$_{10068}$N$_{1752}$O$_{2026}$S$_{44}$
-42,,83,Completely miscible,,Nitric acid,HNO$_{3}$
,,,,394.324,G2ZT,C$_{6}$H$_{14}$N$_{22}$
,,,,,Latamoxef,C$_{20}$H$_{20}$N$_{6}$O$_{9}$S
,,,,,Metizoline,C$_{13}$H$_{14}$N$_{2}$S
,,,,,Mizolastine,C$_{24}$H$_{25}$FN$_{6}$O
,,,,,WIN 56 098,
,,,hydrolyses,,Gallane,H$_{3}$Ga
,,,,,Galnon,C$_{40}$H$_{46}$N$_{4}$O$_{6}$
,,,,328.41,Hexacene,C$_{26}$H$_{16}$
,,,0.024,,Tetrabromomethane,CBr$_{4}$
,,,Soluble,,Poly(N-vinylacetamide),(C$_{4}$H$_{7}$NO)$_{n}$
,,,,,Marimastat,C$_{15}$H$_{29}$N$_{3}$O$_{5}$
,,,,602.59,Pigment red 190,C$_{38}$H$_{22}$N$_{2}$O$_{6}$
,,,,,Phloretic acid,C$_{9}$H$_{10}$O$_{3}$
,,,,,Hipposudoric acid,C$_{16}$H$_{8}$O$_{8}$
,,,,108.01,Carbon hexoxide,CO$_{6}$
,,,,158.455,Palladium(II) cyanide,Pd(CN)$_{2}$
50,,226,,,Tetrabromoethylene,C$_{2}$Br$_{4}$
,,95,,69.06202,Isoxazole,C$_{3}$H$_{3}$NO
,,,,,Chlorendic acid,C$_{9}$H$_{4}$Cl$_{6}$O$_{4}$
,,,,,Wieland-Gumlich aldehyde,C$_{19}$H$_{22}$N$_{2}$O$_{2}$