Name,formula,Property Molar Mass,Property Molar Mass units,Property Melting Point,Property Melting Point units,Property Density,Property Density units,Property Boiling Point,Property Boiling Point units,Property Solubility
Ifetroban,C$_{25}$H$_{32}$N$_{2}$O$_{5}$,,,,,,,,,
Triflupromazine,C$_{18}$H$_{19}$F$_{3}$N$_{2}$S,,,,,,,,,
Milnacipran,C$_{15}$H$_{22}$N$_{2}$O,,,,,,,,,
Morphan,C$_{8}$H$_{15}$N,,,131-132,$^{\circ}$C,,,,,
Ammonium lauryl sulfate,C$_{12}$H$_{29}$NO$_{4}$S,283.43,g/mol,,,1.02,g/cm$^{3}$,418,$^{\circ}$C,
Bromoxynil,C$_{7}$H$_{3}$Br$_{2}$NO,,,,,,,,,
Copper(II) nitrate,Cu(NO$_{3}$)$_{2}$,187.5558,g/mol,256,$^{\circ}$C,3.05,g/cm$^{3}$,170,$^{\circ}$C,trihydrate:   381
Retusin (flavonol),C$_{19}$H$_{18}$O$_{7}$,358.34,g/mol,,,,,,,
Fenticlor,C$_{12}$H$_{8}$Cl$_{2}$O$_{2}$S,,,,,,,,,
Apigeninidin,C$_{15}$H$_{11}$O$_{4}$+,255.24,g/mol,,,,,,,
Azepindole,C$_{12}$H$_{14}$N$_{2}$,,,,,,,,,
Su$\gamma$dex,C$_{72}$H$_{104}$Na$_{8}$O$_{48}$S$_{8}$,,,,,,,,,
Meconic acid,C$_{7}$H$_{4}$O$_{7}$,,,,,,,,,
Succinyl-CoA,C$_{25}$H$_{40}$N$_{7}$O$_{19}$P$_{3}$S,,,,,,,,,
Microcystin-LR,C$_{49}$H$_{74}$N$_{10}$O$_{12}$,,,,,,,,,
Indoxyl,C$_{8}$H$_{7}$NO,,,,,,,,,
Obeticholic acid,,,,108-110,$^{\circ}$C,,,,,
Granatin B,C$_{41}$H$_{28}$O$_{27}$,952.61,g/mol,,,,,,,
Noopept,C$_{17}$H$_{22}$N$_{2}$O$_{4}$,,,,,,,,,
Phenylisocyanate,C$_{7}$H$_{5}$NO,,,,,,,,,Reacts with water
Boric acid,H$_{3}$BO$_{3}$,,,170.9,$^{\circ}$C,1.435,g/cm$^{3}$,300,$^{\circ}$C,2.52
AM-1248,C$_{26}$H$_{34}$N$_{2}$O,,,,,,,,,
Triphenylphosphine oxide,C$_{18}$H$_{15}$OP,278.29,g/mol,154-158,$^{\circ}$C,,,360,$^{\circ}$C,
Secoisolariciresinol diglucoside,C$_{32}$H$_{46}$O$_{16}$,686.7,g/mol,,,,,,,
Zomepirac,C$_{15}$H$_{14}$ClNO$_{3}$,,,,,,,,,
Argadin,C$_{29}$H$_{42}$N$_{10}$O$_{9}$,674.7,g/mol,,,,,,,
Streptozotocin,C$_{8}$H$_{15}$N$_{3}$O$_{7}$,,,,,,,,,
Ayanin,C$_{18}$H$_{16}$O$_{7}$,344.31,g/mol,,,,,,,
Silica gel,SiO$_{2}$,60.08,g/mol,,,,,,,
Ocinaplon,C$_{17}$H$_{11}$N$_{5}$O,,,,,,,,,
Xenon hexafluoride,XeF$_{6}$,,,49.25,$^{\circ}$C,,,75.6,$^{\circ}$C,reacts
Chlordiazepoxide,C$_{16}$H$_{14}$ClN$_{3}$O,,,,,,,,,
CX-516,C$_{14}$H$_{15}$N$_{3}$O,,,,,,,,,
Nickel(III) oxide,Ni$_{2}$O$_{3}$,165.39,g/mol,600,$^{\circ}$C,4.84,g/cm$^{3}$,,,negligible
Formic anhydride,C$_{2}$H$_{2}$O$_{3}$,,,,,,,24,$^{\circ}$C,
Deltic acid,C$_{3}$H$_{2}$O$_{3}$,86.05,g/mol,,,,,,,
Calanolide A,,,,,,,,,,
Magnesium hydride,MgH$_{2}$,26.3209,g/mol,285,$^{\circ}$C,1.45,g/cm$^{3}$,,,decomposes
Disilene,Si$_{2}$H$_{4}$,,,,,,,,,
Fenoxycarb,C$_{17}$H$_{19}$NO$_{4}$,301.34,g/mol,53.5,$^{\circ}$C,,,,,
Norbergenin,C$_{13}$H$_{16}$O$_{9}$,314.24,g/mol,,,,,,,
Dinitro-ortho-cresol,C$_{7}$H$_{6}$N$_{2}$O$_{5}$,,,86.5,$^{\circ}$C,1.58,g/cm$^{3}$,312,$^{\circ}$C,0.01% (20$^{\circ}$C)
Phenacemide,C$_{9}$H$_{10}$N$_{2}$O$_{2}$,,,,,,,,,
Carbendazim,C$_{9}$H$_{9}$N$_{3}$O$_{2}$,191.187,g/mol,302-307,$^{\circ}$C,1.45,g/cm$^{3}$,,,8
Oxycinchophen,C$_{16}$H$_{11}$NO$_{3}$,,,,,,,,,
Hexachloroacetone,C$_{3}$Cl$_{6}$O,264.75,g/mol,-2,$^{\circ}$C,1.444,g/cm$^{3}$,204,$^{\circ}$C,
N-Fluoropyridinium triflate,C$_{6}$H$_{5}$F$_{4}$NO$_{3}$S,,,185-187,$^{\circ}$C,,,,,
Pentafluorobenzoic acid,C$_{7}$HF$_{5}$O$_{2}$,212.076,g/mol,,,,,,,very soluble
Citranaxanthin,C$_{33}$H$_{44}$O,,,,,,,,,Insoluble
Propanamide,C$_{3}$H$_{7}$NO,,,80,$^{\circ}$C,,,213,$^{\circ}$C,very soluble in water
Butylscopolamine,C21H30NO4charge+,,,,,,,,,
Ketazolam,C$_{20}$H$_{17}$ClN$_{2}$O$_{3}$,,,,,,,,,
Dextropropoxyphene,C$_{22}$H$_{29}$NO$_{2}$,,,,,,,,,
Ferric oxalate,C$_{6}$Fe$_{2}$O$_{12}$,375.747,g/mol,,,,,,,slightly soluble
DPPH,C$_{18}$H$_{12}$N$_{5}$O$_{6}$,394.32,g/mol,135,$^{\circ}$C,1.4,g/cm$^{3}$,,,
Dichlorosilane,SiH$_{2}$Cl$_{2}$,,,-122,$^{\circ}$C,,,,,Reacts
Dianin's compound,C$_{18}$H$_{20}$O$_{2}$,268.35,g/mol,,,,,,,
Bamethan,C$_{12}$H$_{19}$NO$_{2}$,,,,,,,,,
Gamma-Carotene,C$_{40}$H$_{56}$,,,160,$^{\circ}$C,,,,,
Antimony trifluoride,SbF$_{3}$,178.76,g/mol,292,$^{\circ}$C,4.379,g/cm$^{3}$,376,$^{\circ}$C,385
Verteporfin,C$_{41}$H$_{42}$N$_{4}$O$_{8}$,,,,,,,,,
Petroselinic acid,C$_{18}$H$_{34}$O$_{2}$,,,,,,,,,Insoluble
Saccharin,C$_{7}$H$_{5}$NO$_{3}$S,,,228.8-229.7,$^{\circ}$C,0.828,g/cm$^{3}$,,,1
Dibutyl phthalate,C$_{16}$H$_{22}$O$_{4}$,,,-35,$^{\circ}$C,,,340,$^{\circ}$C,13
Dialdehyde starch,(C$_{6}$H$_{8}$O$_{5}$)$_{n}$,,,,,,,,,
Isoproscaline,C$_{13}$H$_{21}$NO$_{3}$,239.31,g/mol,163-164,$^{\circ}$C,,,,,
Chlorophenylbiguanide,C$_{8}$H$_{12}$ClN$_{5}$,,,,,,,,,
Octabenzone,C$_{21}$H$_{26}$O$_{3}$,326.429,g/mol,,,,,,,
Efloxate,C$_{19}$H$_{16}$O$_{5}$,,,,,,,,,
Phosphorus pentafluoride,PF$_{5}$,125.966,g/mol,-93.78,$^{\circ}$C,5.527,g/cm$^{3}$,-84.6,$^{\circ}$C,hydrolysis
Teflic acid,HF$_{5}$OTe,,,39.1,$^{\circ}$C,,,59.7,$^{\circ}$C,
Nafoxidine,C$_{29}$H$_{31}$NO$_{2}$,,,,,,,,,
Xanthosine,C$_{10}$H$_{12}$N$_{4}$O$_{6}$,,,,,,,,,Sparingly soluble in cold water
Heptamethine dyes,C$_{40}$H$_{52}$ClN$_{2}$,596.307,g/mol,,,,,,,
Acetylpropionylmorphine,C$_{22}$H$_{25}$NO$_{5}$,,,,,,,,,
Bambuterol,C$_{18}$H$_{29}$N$_{3}$O$_{5}$,,,,,,,,,
Tolpiprazole,C$_{17}$H$_{24}$N$_{4}$,,,,,,,,,
Dotarizine,C$_{29}$H$_{34}$N$_{2}$O$_{2}$,,,,,,,,,
Chlorbenzoxamine,C$_{27}$H$_{31}$ClN$_{2}$O,,,,,,,,,
Trifluoroacetyl chloride,C$_{2}$ClF$_{3}$O,,,,,,,,,
Xanthone,C$_{13}$H$_{8}$O$_{2}$,196.19,g/mol,174,$^{\circ}$C,,,351,$^{\circ}$C,sl. sol. in hot water
Tricaine mesylate,,,,149.5,$^{\circ}$C,,,,,
Maprotiline,C$_{20}$H$_{23}$N,,,,,,,,,
Bisdemethoxycurcumin,C$_{19}$H$_{16}$O$_{4}$,,,,,1.285,g/cm$^{3}$,,,
Orthoacetic acid,C$_{2}$H$_{6}$O$_{3}$,,,,,,,,,
Platinum(IV) chloride,PtCl$_{4}$,336.89,g/mol,370,$^{\circ}$C,4.303,g/cm$^{3}$,,,58.7
Ramoplanin,C$_{119}$H$_{154}$ClN$_{21}$O$_{40}$,,,,,,,,,
JWH-185,C$_{25}$H$_{27}$NO,,,,,,,,,
Arachidonylcyclopropylamide,C$_{23}$H$_{37}$NO,,,,,,,,,
Nortilidine,C$_{16}$H$_{21}$NO$_{2}$,,,,,,,,,
Milameline,C$_{8}$H$_{14}$N$_{2}$O,,,,,,,,,
Polyethylene glycol,C$_{2n}$H$_{4n+2}$O$_{n+1}$,,,,,,,,,
Sudan II,C$_{29}$H$_{24}$N$_{6}$,,,156-158,$^{\circ}$C,,,,,
DESOXY,C$_{11}$H$_{17}$NO$_{2}$,195.26,g/mol,,,,,,,
Bemiparin sodium,C$_{8}$H$_{9}$NO$_{2}$,,,,,,,,,
Butyraldehyde,C$_{4}$H$_{8}$O,72.11,g/mol,-96.86,$^{\circ}$C,,,74.8,$^{\circ}$C,7.6
Granulocyte macrophage colony-stimulating factor,,,,,,,,,,
Azithromycin,C$_{38}$H$_{72}$N$_{2}$O$_{12}$,,,,,,,,,
Hexamidine,C$_{20}$H$_{26}$N$_{4}$O$_{2}$,,,,,,,,,
Foravirumab,C$_{6400}$H$_{9914}$N$_{1718}$O$_{1998}$S$_{44}$,,,,,,,,,
Ceforanide,C$_{20}$H$_{21}$N$_{7}$O$_{6}$S$_{2}$,,,,,,,,,
Hydroflumethiazide,C$_{8}$H$_{8}$F$_{3}$N$_{3}$O$_{4}$S$_{2}$,,,,,,,,,
Metamizole,C$_{13}$H$_{17}$N$_{3}$O$_{4}$S,,,,,,,,,
AM-1221,C$_{27}$H$_{27}$N$_{3}$O$_{3}$,,,,,,,,,
Diarsenic tetraiodide,As$_{2}$I$_{4}$,657.461,g/mol,137,$^{\circ}$C,,,380,$^{\circ}$C,
SR9009,C$_{20}$H$_{24}$ClN$_{3}$O$_{4}$S,,,,,,,,,
Chloroprene,C$_{4}$H$_{5}$Cl,88.5365,g/mol,-130,$^{\circ}$C,0.9598,g/cm$^{3}$,59.4,$^{\circ}$C,0.026
Equilenin,C$_{18}$H$_{18}$O$_{2}$,,,,,,,,,
SB-612 111,,,,,,,,,,
Thiobenzophenone,C$_{13}$H$_{10}$S,,,53-54,$^{\circ}$C,,,174,$^{\circ}$C,
Dinitromethane,CH$_{2}$N$_{2}$O$_{4}$,,,,,,,39,$^{\circ}$C,
Candesartan,C$_{24}$H$_{20}$N$_{6}$O$_{3}$,,,,,,,,,
Cyclopentadienyliron dicarbonyl dimer,C$_{14}$H$_{10}$Fe$_{2}$O$_{4}$,353.925,g/mol,194,$^{\circ}$C,,,,,
Aspirin,C$_{9}$H$_{8}$O$_{4}$,,,,,,,,,
Spirapril,C$_{22}$H$_{30}$N$_{2}$O$_{5}$S$_{2}$,,,,,,,,,
Alvimopan,C$_{25}$H$_{32}$N$_{2}$O$_{4}$,,,,,,,,,
Ergothioneine,C$_{9}$H$_{15}$N$_{3}$O$_{2}$S,229.30,g/mol,275,$^{\circ}$C,,,,,
CTEP,C$_{19}$H$_{13}$ClF$_{3}$N$_{3}$O,,,,,,,,,
Sodium polonide,Na$_{2}$Po,254.96,g/mol,,,,,,,
Neopentyl glycol,C$_{5}$H$_{12}$O$_{2}$,104.148,g/mol,129.13,$^{\circ}$C,,,208,$^{\circ}$C,soluble in water
Abietic acid,C$_{20}$H$_{30}$O$_{2}$,,,172-175,$^{\circ}$C,,,,,
Dichlorvos,C$_{4}$H$_{7}$Cl$_{2}$O$_{4}$P,,,,,,,,,
Cacodyl,C$_{4}$H$_{12}$As$_{2}$,,,,,,,,,
Prosidol,C$_{18}$H$_{27}$NO$_{3}$,,,,,,,,,
Demecarium bromide,,,,,,,,,,
Methimepip,C$_{10}$H$_{17}$N$_{3}$,179.262,g/mol,,,,,,,
Melibiulose,C$_{12}$H$_{22}$O$_{11}$,,,,,,,,,
Fumonisin B2,C$_{34}$H$_{59}$NO$_{14}$,705.83,g/mol,,,,,,,
Gastrodin,C$_{13}$H$_{18}$O$_{7}$,286.27,g/mol,,,,,,,
Antimony(III) acetate,C$_{6}$H$_{9}$O$_{6}$Sb,,,128.5,$^{\circ}$C,1.22,g/cm$^{3}$,,,
Galanin,C$_{146}$H$_{213}$N$_{43}$O$_{40}$,,,,,,,,,
Ammonium thioglycolate,C$_{2}$H$_{7}$NO$_{2}$S,109.15,g/mol,,,,,,,
Photobiotin,C$_{23}$H$_{35}$N$_{9}$O$_{4}$S,,,,,,,,,
Chloropentafluoroethane,C$_{2}$ClF$_{5}$,154.466,g/mol,-99,$^{\circ}$C,,,-39.1,$^{\circ}$C,59
Rubidium chloride,RbCl,120.921,g/mol,718,$^{\circ}$C,2.80,g/cm$^{3}$,1390,$^{\circ}$C,1.41
Artemisinin,C$_{15}$H$_{22}$O$_{5}$,,,152,$^{\circ}$C,,,,,
Selenium disulfide,SeS$_{2}$,143.09,g/mol,111,$^{\circ}$C,,,118-119,$^{\circ}$C,negligible
Neokuguaglucoside,C$_{42}$H$_{66}$O$_{14}$,,,,,,,,,
Rokitamycin,C$_{42}$H$_{71}$NO$_{14}$,,,116,$^{\circ}$C,,,,,"Insoluble in water,  Very soluble in chloroform and methanol"
Phytofluene,C$_{40}$H$_{62}$,,,,,,,140-185,$^{\circ}$C,Insoluble
Mefruside,C$_{13}$H$_{19}$ClN$_{2}$O$_{5}$S$_{2}$,,,,,,,,,
Meprotixol,C$_{19}$H$_{23}$NO$_{2}$S,,,,,,,,,
Vasicinone,C$_{11}$H$_{10}$N$_{2}$O$_{2}$,,,200-202,$^{\circ}$C,1.5,g/cm$^{3}$,,,
Methylenedioxybenzylpiperazine,C$_{12}$H$_{16}$N$_{2}$O$_{2}$,,,,,,,,,
Vinburnine,C$_{19}$H$_{22}$N$_{2}$O,,,,,,,,,
Chloro(pyridine)cobaloxime,C$_{13}$H$_{19}$ClCoN$_{5}$O$_{4}$,,,,,,,,,insoluble
Androisoxazole,C$_{21}$H$_{31}$NO$_{2}$,329.476,g/mol,,,,,,,
Uracil,C$_{4}$H$_{4}$N$_{2}$O$_{2}$,112.08676,g/mol,335,$^{\circ}$C,1.32,g/cm$^{3}$,,,Soluble
Tezosentan,C$_{27}$H$_{27}$N$_{9}$O$_{6}$S,,,,,,,,,
Domiphen bromide,,,,,,,,,,
Equol,C$_{15}$H$_{14}$O$_{3}$,242.27,g/mol,,,,,,,
Capsaicin,C$_{18}$H$_{27}$NO$_{3}$,,,62,$^{\circ}$C,,,210,$^{\circ}$C,0.0013
Xylitol,C$_{5}$H$_{12}$O$_{5}$,,,92-96,$^{\circ}$C,1.52,g/cm$^{3}$,345.39,$^{\circ}$C,~ 0.1
EA-3443,C$_{19}$H$_{27}$NO$_{3}$,,,,,,,,,
Mycothiol,C$_{17}$H$_{30}$N$_{2}$O$_{12}$S,486.49,g/mol,,,,,,,
Trimethyldiphenylpropylamine,C$_{18}$H$_{23}$N,,,,,,,,,
Forasartan,C$_{23}$H$_{28}$N$_{8}$,,,,,,,,,
Enprostil,C$_{23}$H$_{28}$O$_{6}$,,,,,,,,,
Bismuth tribromide,BiBr$_{3}$,,,219,$^{\circ}$C,,,462,$^{\circ}$C,
Caesium hydride,CsH,133.91339,g/mol,,,3.42,g/cm$^{3}$,,,
Teriparatide,C$_{15}$H$_{21}$N$_{3}$O$_{2}$,,,,,,,,,
Reteplase,C$_{1736}$H$_{2671}$N$_{499}$O$_{522}$S$_{22}$,,,,,,,,,
Diphenylacetylene,C$_{14}$H$_{10}$,178.24,g/mol,62.5,$^{\circ}$C,,,170,$^{\circ}$C,insoluble
Homocysteine,C$_{4}$H$_{9}$NO$_{2}$S,135.18,g/mol,234-235,$^{\circ}$C,,,,,
Arsenide,As$^{3-}$,,,,,,,,,