Name,formula,Property Molar Mass,Property Molar Mass units,Property Melting Point,Property Melting Point units,Property Density,Property Density units,Property Boiling Point,Property Boiling Point units,Property Solubility
Heptadecane,C$_{17}$H$_{36}$,,,,,,,,,
Bromomethane,CH$_{3}$Br,,,-93.66,$^{\circ}$C,,,,,15.22
Isoflurane,C$_{3}$H$_{2}$ClF$_{5}$O,,,,,,,,,
Thiamine monophosphate,C$_{12}$H$_{18}$N$_{4}$O$_{4}$PS+,345.336,g/mol,,,,,,,
Acetylenedicarboxylic acid,C$_{4}$H$_{2}$O$_{4}$,,,175-176,$^{\circ}$C,,,,,
Ethyl bromoacetate,C$_{4}$H$_{7}$BrO$_{2}$,,,-38,$^{\circ}$C,1.51,g/cm$^{3}$,158,$^{\circ}$C,Insoluble
Thiamphenicol,C$_{12}$H$_{15}$Cl$_{2}$NO$_{5}$S,,,,,,,,,
Lu AA-33810,,,,,,,,,,
Carumonam,C$_{12}$H$_{14}$N$_{6}$O$_{10}$S$_{2}$,,,,,,,,,
Nafcillin,C$_{21}$H$_{22}$N$_{2}$O$_{5}$S,,,,,,,,,
Dexfenfluramine,C$_{12}$H$_{16}$F$_{3}$N,,,,,,,,,
Resmethrin,C$_{22}$H$_{26}$O$_{3}$,338.44,g/mol,,,,,,,
Hypophosphorous acid,H$_{3}$PO$_{2}$,66.00,g/mol,26.5,$^{\circ}$C,1.493,g/cm$^{3}$,130,$^{\circ}$C,miscible
Ethcathinone,C$_{11}$H$_{15}$NO,,,,,,,,,
Myrtillin,C$_{21}$H$_{21}$ClO$_{12}$,500.83,g/mol,,,,,,,
Trypanothione,C$_{27}$H$_{49}$N$_{9}$O$_{10}$S$_{2}$,,,,,,,,,
Harmine,C$_{13}$H$_{12}$N$_{2}$O,212.25,g/mol,321,$^{\circ}$C,,,,,1
Hachimycin,C$_{58}$H$_{84}$N$_{2}$O$_{18}$,,,,,,,,,
C4mim,C$_{8}$H$_{15}$N$^{+}_{2}$,,,,,,,,,
Phloxine,C$_{20}$H$_{2}$Br$_{4}$Cl$_{4}$Na$_{2}$O$_{5}$,,,,,,,,,Soluble
Beta-Carotene,C$_{40}$H$_{56}$,,,176-184,$^{\circ}$C,0.941,g/cm$^{3}$,654.7,$^{\circ}$C,Insoluble
Lineatin,C$_{10}$H$_{16}$O$_{2}$,168.2,g/mol,,,,,,,
Glyceric acid,C$_{3}$H$_{6}$O$_{4}$,106.08,g/mol,,,,,,,
Gold triiodide,AuI$_{3}$,577.67,g/mol,,,,,,,
Indolizidine,C$_{8}$H$_{15}$N,,,,,0.8956,g/cm$^{3}$,159-160,$^{\circ}$C,
Tulobuterol,C$_{12}$H$_{18}$ClNO,,,,,,,,,
Yttrium(III) chloride,YCl$_{3}$,195.26,g/mol,721,$^{\circ}$C,2.67,g/cm$^{3}$,1507,$^{\circ}$C,82
Geranylfarnesyl pyrophosphate,C$_{25}$H$_{41}$O$_{7}$P$^{-3}_{2}$,,,,,,,,,
Dimercaptosuccinic acid,C$_{4}$H$_{6}$O$_{4}$S$_{2}$,182.22,g/mol,125,$^{\circ}$C,,,,,
Tartaric acid,(C$_{2}$H$_{4}$)$_{n}$,,,115-135,$^{\circ}$C,0.91-0.96,g/cm$^{3}$,,,
Trastuzumab emtansine,,,,,,,,,,
Hexanitroethane,C$_{2}$N$_{6}$O$_{12}$,,,135,$^{\circ}$C,,,,,
Motretinide,C$_{23}$H$_{31}$NO$_{2}$,,,,,,,,,
Isobutyraldehyde,C$_{4}$H$_{8}$O,72.11,g/mol,-65,$^{\circ}$C,0.79,g/cm$^{3}$,63,$^{\circ}$C,
N-Ethyltryptamine,C$_{12}$H$_{16}$N$_{2}$,,,87,$^{\circ}$C,,,,,
CAR-302 196,,,,,,,,,,
Oxalosuccinic acid,C$_{6}$H$_{6}$O$_{7}$,,,,,,,,,
Albifylline,C$_{13}$H$_{20}$N$_{4}$O$_{3}$,280.32,g/mol,,,,,,,
Paramethasone,C$_{22}$H$_{29}$FO$_{5}$,,,,,,,,,
Chlortetracycline,C$_{22}$H$_{23}$ClN$_{2}$O$_{8}$,,,,,,,,,
Stearin,C$_{57}$H$_{110}$O$_{6}$,,,54-72.5,$^{\circ}$C,0.862,g/cm$^{3}$,,,Insoluble
Meldrum's acid,C$_{6}$H$_{8}$O$_{4}$,,,94-95,$^{\circ}$C,,,,,
Thiomersal,C$_{9}$H$_{9}$HgNaO$_{2}$S,404.81,g/mol,232-233,$^{\circ}$C,2.508,g/cm$^{3}$,,,1000
Mivazerol,C$_{11}$H$_{11}$N$_{3}$O$_{2}$,217.22,g/mol,,,,,,,
Ammonium orthomolybdate,(NH$_{4}$)$_{2}$MoO$_{4}$,196.02,g/mol,,,,,,,
Morphinone,C$_{4}$H$_{8}$,283.32,g/mol,,,,,,,
Doxazosin,C$_{23}$H$_{25}$N$_{5}$O$_{5}$,,,,,,,,,
Roburin A,C$_{82}$H$_{50}$O$_{50}$,1835.24,g/mol,,,,,,,
Azapetine,C$_{17}$H$_{17}$N,,,,,,,,,
SNC-80,C$_{28}$H$_{39}$N$_{3}$O$_{2}$,,,,,,,,,
Cetostearyl alcohol,"CH$_{3}$(CH$_{2}$)$_{n}$OHnvariable,typically15-17",,,48,$^{\circ}$C,,,,,
Hydroxymethylpentylcyclohexenecarboxaldehyde,C$_{13}$H$_{22}$O$_{2}$,,,,,,,,,
Obidoxime,C14H16N4O3charge+2,,,,,,,,,
Triphosphoric acid,H$_{5}$P$_{3}$O$_{10}$,257.95,g/mol,,,,,,,
TRIMU 5,C$_{19}$H$_{30}$N$_{4}$O$_{4}$,,,,,,,,,
Eledoisin,C$_{54}$H$_{85}$N$_{13}$O$_{15}$S,1188.40,g/mol,,,,,,,
Tuberculostearic acid,C$_{19}$H$_{38}$O$_{2}$,298.50,g/mol,,,,,,,
Nitronium ion,NO$^{+}_{2}$,,,,,,,,,
WAY-100 635,,,,,,,,,,
Sulfotep,C$_{8}$H$_{20}$O$_{5}$P$_{2}$S$_{2}$,322.318922,g/mol,,,,,136-139,$^{\circ}$C,30
POCOP,C$_{30}$H$_{24}$O$_{2}$P$_{2}$,,,,,,,,,
Kushenin,C$_{16}$H$_{14}$O$_{5}$,286.27,g/mol,,,,,,,
Catechin-7-O-glucoside,C$_{21}$H$_{24}$O,,,,,,,,,
Cyclohexanehexone,C$_{6}$O$_{6}$,,,,,,,,,
Propidium iodide,C$_{27}$H$_{34}$I$_{2}$N$_{4}$,,,,,,,,,
Propynyl (psychedelic),C$_{13}$H$_{17}$NO$_{3}$,235.279,g/mol,,,,,,,
Ceftibuten,C$_{15}$H$_{14}$N$_{4}$O$_{6}$S$_{2}$,,,,,,,,,
Alpha-Difluoromethyl-DOPA,C$_{10}$H$_{11}$F$_{2}$NO$_{4}$,247.20,g/mol,,,,,479,$^{\circ}$C,
Esketamine,C$_{13}$H$_{16}$ClNO,,,,,,,,,
Hydroxylammonium nitrate,H$_{4}$N$_{2}$O$_{4}$,96.04,g/mol,,,,,,,Soluble
Nabitan,C$_{35}$H$_{52}$N$_{2}$O$_{3}$,,,,,,,,,
Coumestan,C$_{15}$H$_{8}$O$_{3}$,236.22,g/mol,187-188,$^{\circ}$C,,,,,
Macbecin,C$_{30}$H$_{42}$N$_{2}$O$_{8}$,,,,,,,,,
Phenylsilatrane,C$_{12}$H$_{17}$NO$_{3}$Si,,,,,,,,,
Reserpine,C$_{33}$H$_{40}$N$_{2}$O$_{9}$,,,,,,,,,
Cobalt(III) nitrate,Co(NO$_{3}$)$_{3}$,244.95,g/mol,,,2.49,g/cm$^{3}$,,,5.07
Amphetaminil,C$_{17}$H$_{18}$N$_{2}$,,,,,,,,,
Albiglutide,C$_{3232}$H$_{5032}$N$_{864}$O$_{979}$S$_{4}$,,,,,,,,,
Nitric oxide,NO,,,-164,$^{\circ}$C,,,-152,$^{\circ}$C,0.0098
Setazindol,C$_{15}$H$_{16}$ClNO,,,,,,,,,
Imidazol-4-one-5-propionic acid,C$_{6}$H$_{8}$N$_{2}$O$_{3}$,,,,,,,,,
Hydrogen fluoride,HF,,,-83.6,$^{\circ}$C,,,19.5,$^{\circ}$C,miscible
Tetrakis(triphenylphosphine)platinum(0),C$_{72}$H$_{60}$P$_{4}$Pt,1244.24,g/mol,160,$^{\circ}$C,,,,,Insoluble
Ciclotizolam,C$_{20}$H$_{18}$BrClN$_{4}$S,,,,,,,,,
Adapalene,C$_{28}$H$_{28}$O$_{3}$,,,,,,,,,
Zinc phosphate,Zn$_{3}$(PO$_{4}$)$_{2}$,386.11,g/mol,900,$^{\circ}$C,3.998,g/cm$^{3}$,,,insoluble
Beryllium carbide,CBe$_{2}$,,,2100,$^{\circ}$C,,,,,decomposes
Clorgiline,C$_{13}$H$_{15}$Cl$_{2}$NO,,,,,,,,,
BINAP,C$_{44}$H$_{32}$P$_{2}$,,,239-241,$^{\circ}$C,,,,,organic solvents
Butyl PBD,C$_{24}$H$_{22}$N$_{2}$O,,,,,,,,,
Aminocarb,C$_{11}$H$_{16}$N$_{2}$O$_{2}$,,,95.0,$^{\circ}$C,,,375.191,$^{\circ}$C,
NS102,C$_{12}$H$_{11}$N$_{3}$O$_{4}$,,,,,,,,,Insoluble
Uric acid,C$_{5}$H$_{4}$N$_{4}$O$_{3}$,,,300,$^{\circ}$C,,,,,0.0006g/100mL (at 20 $^{\circ}$C)
Trimazosin,C$_{20}$H$_{29}$N$_{5}$O$_{6}$,,,,,,,,,
Cinolazepam,C$_{18}$H$_{13}$ClFN$_{3}$O$_{2}$,,,,,,,,,
Barium oxide,BaO,153.326,g/mol,1923,$^{\circ}$C,,,,,3.48
Fucitol,C$_{22}$H$_{30}$O$_{5}$,166.17,g/mol,153,$^{\circ}$C,,,,,
O-1057,C$_{32}$H$_{46}$N$_{2}$O$_{4}$,,,,,,,,,
Butalamine,C$_{18}$H$_{28}$N$_{4}$O,,,,,,,,,
Cyclohexenone,C$_{6}$H$_{8}$O,,,-53,$^{\circ}$C,,,171,$^{\circ}$C,41.3
Para-Dimethylaminobenzaldehyde,C$_{9}$H$_{11}$NO,,,74,$^{\circ}$C,,,176-177,$^{\circ}$C,0.3
Convolutindole A,C$_{14}$H$_{17}$Br$_{3}$N$_{2}$O$_{2}$,,,61.5-62.5,$^{\circ}$C,,,,,
Isethionic acid,C$_{2}$H$_{6}$O$_{4}$S,126.13,g/mol,191-194,$^{\circ}$C,1.63,g/cm$^{3}$,,,
Nutlin,C$_{30}$H$_{30}$C$_{l2}$N$_{4}$O$_{4}$,581.4896,g/mol,,,,,,,
SB-236057,C$_{33}$H$_{34}$N$_{4}$O$_{3}$,,,,,,,,,
Aceprometazine,C$_{19}$H$_{22}$N$_{2}$OS,,,,,,,,,
Coniine,C$_{8}$H$_{17}$N,,,-2,$^{\circ}$C,,,166,$^{\circ}$C,
Dodecylbenzene,C$_{18}$H$_{30}$,246.43,g/mol,-7,$^{\circ}$C,0.856,g/cm$^{3}$,290-410,$^{\circ}$C,insoluble
Revospirone,C$_{18}$H$_{21}$N$_{5}$O$_{3}$S,,,,,,,,,
Neodymium(III) chloride,"NdCl$_{3}$,",250.598,g/mol,758,$^{\circ}$C,4.13,g/cm$^{3}$,1600,$^{\circ}$C,0.967
Tricarbon,C$_{3}$,,,,,,,,,
Bergenin,C$_{14}$H$_{16}$O$_{9}$,328.27,g/mol,,,,,,,
Tin(II) fluoride,SnF$_{2}$,156.69,g/mol,213,$^{\circ}$C,4.57,g/cm$^{3}$,850,$^{\circ}$C,31
Arnolol,C$_{14}$H$_{23}$NO$_{3}$,,,,,,,,,
Samatasvir,C$_{47}$H$_{48}$N$_{8}$O$_{6}$S$_{2}$,,,,,,,,,
RU-28306,C$_{13}$H$_{16}$N$_{2}$,,,,,,,,,
Famciclovir,C$_{14}$H$_{19}$N$_{5}$O$_{4}$,,,,,,,,,
Polyozellin,C$_{22}$H$_{14}$O$_{10}$,,,,,,,,,
Gold(I III) chloride,Au$_{4}$Cl$_{8}$,,,,,,,,,
Chloroauric acid,HAuCl$_{4}$,339.785,g/mol,254,$^{\circ}$C,3.9,g/cm$^{3}$,,,350
Aluminium acetylacetonate,AlC$_{15}$H$_{21}$O$_{6}$,,,,,1.42,g/cm$^{3}$,,,
Methyl isocyanide,C$_{2}$H$_{3}$N,,,-45,$^{\circ}$C,,,59-60,$^{\circ}$C,miscible
Dexmethylphenidate,C$_{14}$H$_{19}$NO$_{2}$,,,,,,,,,
Melamine,C$_{3}$H$_{6}$N$_{6}$,126.12,g/mol,345,$^{\circ}$C,1.574,g/cm$^{3}$,,,32.4
Pratol,C$_{16}$H$_{12}$O$_{4}$,268.26,g/mol,,,,,,,
Collagenase clostridium histolyticum,,,,,,,,,,
Sesamin,C$_{20}$H$_{18}$O$_{6}$,354.35,g/mol,,,,,,,
TP-13,C$_{19}$H$_{19}$N$_{7}$O,,,,,,,,,
Phenyl-C61-butyric acid methyl ester,C$_{72}$H$_{14}$O$_{2}$,,,,,,,,,
Alclometasone,C$_{28}$H$_{37}$ClO$_{7}$,,,,,,,,,
Cyclobenzaprine,C$_{20}$H$_{21}$N,,,,,,,,,
Vat Yellow 1,C$_{28}$H$_{12}$O$_{2}$N$_{2}$,408.40708,g/mol,,,,,,,
Faxeladol,C$_{15}$H$_{23}$NO,,,,,,,,,
Enilospirone,C$_{15}$H$_{18}$ClNO$_{3}$,,,,,,,,,
PipISB,C$_{27}$H$_{26}$FN$_{3}$O$_{3}$S,,,,,,,,,
Amixetrine,C$_{17}$H$_{27}$NO,,,,,,,,,
Triphenylstibine,C$_{18}$H$_{15}$Sb,353.07,g/mol,52-54,$^{\circ}$C,1.53,g/cm$^{3}$,377,$^{\circ}$C,insoluble
Trimethylsilyl cyanide,C$_{4}$H$_{9}$SiN,,,8,$^{\circ}$C,,,114,$^{\circ}$C,reacts with water
Aminocaproic acid,,,,,,,,,,
Dihydrochalcone,C$_{15}$H$_{14}$O,210.27,g/mol,50,$^{\circ}$C,,,,,
Flavogallonic acid dilactone,C$_{21}$H$_{10}$O$_{12}$,454.29,g/mol,,,,,,,
Spiradoline,C$_{22}$H$_{30}$Cl$_{2}$N$_{2}$O$_{2}$,,,,,,,,,
Caroxazone,C$_{10}$H$_{10}$N$_{2}$O$_{3}$,,,,,,,,,
Letrozole,C$_{17}$H$_{11}$N$_{5}$,,,,,,,,,
Geranic acid,C$_{10}$H$_{16}$O$_{2}$,,,,,0.97,g/cm$^{3}$,249-251,$^{\circ}$C,
Calcium lactate gluconate,C$_{9}$H$_{16}$CaO$_{10}$,,,,,,,,,400
Propylheptyl alcohol,C$_{10}$H$_{22}$O,,,,,,,,,
Crotamiton,C$_{13}$H$_{17}$NO,,,,,,,,,
Mannosulfan,C$_{10}$H$_{22}$O$_{14}$S$_{4}$,,,,,,,,,
Phosphocholine,C$_{5}$H$_{15}$NO$_{4}$P$^{+}$,184.151,g/mol,,,,,,,
Paramethadione,C$_{7}$H$_{11}$NO$_{3}$,,,,,,,,,
Propentofylline,C$_{15}$H$_{22}$N$_{4}$O$_{3}$,,,,,,,,,
Timiperone,C$_{22}$H$_{24}$FN$_{3}$OS,,,,,,,,,
Pronethalol,C$_{15}$H$_{19}$NO,,,,,,,,,
Oxepane,C$_{6}$H$_{12}$O,,,,,,,,,
Thromboxane A2,C$_{20}$H$_{32}$O$_{5}$,352.465,g/mol,,,,,,,
Etonitazene,C$_{22}$H$_{28}$N$_{4}$O$_{3}$,,,,,,,,,
Chlorophacinone,C$_{23}$H$_{15}$ClO$_{3}$,374.82,g/mol,,,,,,,
Glutethimide,C$_{13}$H$_{15}$NO$_{2}$,,,,,,,,,
Fazadinium bromide,,,,,,,,,,
Potassium iodide,KI,166.0028,g/mol,681,$^{\circ}$C,3.123,g/cm$^{3}$,1330,$^{\circ}$C,128
Nitroxyl,HNO,,,,,,,,,
Cadmium acetate,Cd(CH$_{3}$COO)$_{2}$(anhydrous),230.500,g/mol,255,$^{\circ}$C,2.341,g/cm$^{3}$,,,soluble
Baccatin III,C$_{31}$H$_{38}$O$_{11}$,,,229-234,$^{\circ}$C,,,,,
AM-4030,C$_{27}$H$_{42}$O$_{4}$,,,,,,,,,
Thallium(I) hydroxide,TlOH,221.390,g/mol,,,7.44,g/cm$^{3}$,,,34.3
Pentamidine,C$_{19}$H$_{24}$N$_{4}$O$_{2}$,,,,,,,,,
Ebalzotan,C$_{19}$H$_{30}$N$_{2}$O$_{2}$,,,,,,,,,
Blasticidin S,C$_{17}$H$_{26}$N$_{8}$O$_{5}$,422.44,g/mol,,,,,,,
Trimetrexate,C$_{19}$H$_{23}$N$_{5}$O$_{3}$,,,,,,,,,
Cyclohexanedimethanol,C$_{8}$H$_{16}$O$_{2}$,144.21,g/mol,41,$^{\circ}$C,,,284,$^{\circ}$C,
Silver cyanate,AgOCN,149.885,g/mol,,,,,,,
Delta-Valerolactone,C$_{5}$H$_{8}$O$_{2}$,,,-13,$^{\circ}$C,,,230-260,$^{\circ}$C,
Lofexidine,C$_{11}$H$_{12}$Cl$_{2}$N$_{2}$O,,,,,,,,,
Glycochenodeoxycholic acid,C$_{26}$H$_{43}$NO$_{5}$,449.62,g/mol,,,,,,,
Flavaspidic acid BB,C$_{24}$H$_{30}$O$_{8}$,446.49,g/mol,,,,,,,
Zipeprol,C$_{23}$H$_{32}$N$_{2}$O$_{3}$,,,,,,,,,
Perfluorooctane,C$_{8}$F$_{18}$,438.06,g/mol,-25,$^{\circ}$C,,,103-104,$^{\circ}$C,10
Diphthamide,C$_{13}$H$_{23}$N$_{5}$O$_{3}$,297.354,g/mol,,,,,,,
Saponarin,C$_{27}$H$_{30}$O$_{15}$,594.52,g/mol,,,,,,,
Chlorpropamide,C$_{10}$H$_{13}$ClN$_{2}$O$_{3}$S,,,,,,,,,
Lead titanate,PbTiO$_{3}$,303.09,g/mol,,,7.52,g/cm$^{3}$,,,Insoluble
Dichlorophen,C$_{13}$H$_{10}$Cl$_{2}$O$_{2}$,,,,,,,,,
Aluminium arsenate,AlAsO$_{4}$,165.901,g/mol,1000,$^{\circ}$C,3.25,g/cm$^{3}$,,,insoluble
Phycocyanobilin,C$_{33}$H$_{40}$N$_{4}$O$_{6}$,588.69,g/mol,,,,,,,
TROX-1,C$_{22}$H$_{16}$ClFN$_{6}$O,,,,,,,,,
Mequitazine,C$_{20}$H$_{22}$N$_{2}$S,,,,,,,,,
Ecamsule,C$_{28}$H$_{34}$O$_{8}$S$_{2}$,562.70,g/mol,,,,,,,
BDTH2,C$_{12}$H$_{16}$N$_{2}$O$_{2}$S$_{2}$,,,132-135,$^{\circ}$C,,,,,
Tetranitromethane,CN$_{4}$O$_{8}$,196.04,g/mol,13.8,$^{\circ}$C,1.623,g/cm$^{3}$,126,$^{\circ}$C,
Iron(II) selenide,FeSe,134.81,g/mol,965,$^{\circ}$C,4.72,g/cm$^{3}$,,,0.975
Barium ferrate,BaFeO$_{4}$,,,,,,,,,insoluble
Methylprednisolone,C$_{22}$H$_{30}$O$_{5}$,,,,,,,,,
Quinapril,C$_{25}$H$_{30}$N$_{2}$O$_{5}$,,,,,,,,,
Molybdenum(V) fluoride,MoF$_{5}$,190.952,g/mol,66,$^{\circ}$C,3.44,g/cm$^{3}$,215.6,$^{\circ}$C,
Erbium(III) chloride,ErCl$_{3}$(anhydrous),273.62,g/mol,776,$^{\circ}$C,4.1,g/cm$^{3}$,1500,$^{\circ}$C,soluble in water
Eptifibatide,C$_{35}$H$_{49}$N$_{11}$O$_{9}$S$_{2}$,,,,,,,,,
Bakuchiol,C$_{18}$H$_{24}$O,256.38,g/mol,,,,,,,
Folinic acid,,,,,,,,,,
Pimagedine,CH$_{6}$N$_{4}$,74.085,g/mol,,,,,261,$^{\circ}$C,
Hydrogen telluride,H$_{2}$Te,,,-49,$^{\circ}$C,,,-2.2,$^{\circ}$C,0.70
Sulfanilic acid,C$_{6}$H$_{7}$NO$_{3}$S,,,288,$^{\circ}$C,,,,,12.51
Neohesperidin dihydrochalcone,C$_{28}$H$_{36}$O$_{15}$,612.58,g/mol,,,,,,,
VUAA1,C$_{19}$H$_{21}$N$_{5}$OS,,,,,,,,,
Biphenyl,C$_{12}$H$_{10}$,,,69.2,$^{\circ}$C,1.04,g/cm$^{3}$,255,$^{\circ}$C,4.45
CP 55 940,,,,,,,,,,
Clobazam,C$_{16}$H$_{13}$ClN$_{2}$O$_{2}$,,,,,,,,,
Potassium osmate,H$_{4}$K$_{2}$O$_{6}$Os,,,,,,,,,
Butacaine,C$_{18}$H$_{30}$N$_{2}$O$_{2}$,306.443,g/mol,,,,,,,
Azaspirodecane,C$_{9}$H$_{17}$N,139.24,g/mol,,,,,,,
Crocetin,C$_{20}$H$_{24}$O$_{4}$,,,285,$^{\circ}$C,,,,,
Tantalum telluride,TaTe$_{2}$,436.145,g/mol,,,9.4,g/cm$^{3}$,,,
Epoxomicin,C$_{28}$H$_{50}$N$_{4}$O$_{7}$,,,,,,,,,
JWH-200,C$_{25}$H$_{24}$N$_{2}$O$_{2}$,,,,,,,,,
Cholane,C$_{24}$H$_{42}$,330.59,g/mol,,,,,,,
Ergoline,C$_{14}$H$_{16}$N$_{2}$,,,,,,,,,
Fenadiazole,C$_{8}$H$_{6}$N$_{2}$O$_{2}$,,,,,,,,,
Omecamtiv mecarbil,,,,,,,,,,
Umbellic acid,C$_{9}$H$_{8}$O$_{4}$,,,,,,,,,
Bulbocapnine,C$_{19}$H$_{19}$NO$_{4}$,325.36,g/mol,201-203,$^{\circ}$C,,,,,
Lithium superoxide,LiO$_{2}$,38.94,g/mol,,,,,,,
Hetacillin,C$_{19}$H$_{23}$N$_{3}$O$_{4}$S,,,,,,,,,
Pentazenium,N$^{+}_{5}$,70.0335,g/mol,,,,,,,
Dihydrexidine,C$_{17}$H$_{17}$NO$_{2}$,,,,,,,,,
Xylopropamine,C$_{11}$H$_{17}$N,,,,,,,,,
Fluoromethane,C$_{14}$H$_{23}$NO$_{2}$S,269.40,g/mol,,,,,,,
Tert-Amyl alcohol,C$_{5}$H$_{12}$O,,,,,,,,,120
Nickel(II) titanate,NiTiO$_{3}$,154.61,g/mol,,,4.44,g/cm$^{3}$,,,0.0396
Rosavin,C$_{20}$H$_{28}$O$_{10}$,,,,,,,,,
Milataxel,C$_{44}$H$_{55}$NO$_{16}$,,,,,,,,,
Digermane,Ge$_{2}$H$_{6}$,151.328,g/mol,-109,$^{\circ}$C,,,31.5,$^{\circ}$C,Insoluble
Danishefsky's diene,C$_{8}$H$_{16}$O$_{2}$Si,,,,,,,68,$^{\circ}$C,
JM-1232,C$_{24}$H$_{27}$N$_{3}$O$_{2}$,,,,,,,,,
Kanamycin,C$_{18}$H$_{36}$N$_{4}$O,,,,,,,,,
Prodelphinidin C2,C$_{45}$H$_{38}$O$_{20}$,898.77,g/mol,,,,,,,
Methanolamine,CH$_{5}$NO,,,,,,,,,
BW373U86,C$_{27}$H$_{37}$N$_{3}$O$_{2}$,,,,,,,,,
Estropipate,C$_{22}$H$_{32}$N$_{2}$O$_{5}$S,,,,,,,,,
Parecoxib,C$_{19}$H$_{18}$N$_{2}$O$_{4}$S,,,,,,,,,
Disulfoton,C$_{8}$H$_{19}$O$_{2}$PS$_{3}$,,,,,,,,,0.03% (22.7$^{\circ}$C)
Fluoroacetamide,C$_{2}$H$_{4}$FNO,,,107,$^{\circ}$C,,,,,Soluble
Sodium thiosulfate,Na$_{2}$S$_{2}$O$_{3}$,158.11,g/mol,48.3,$^{\circ}$C,1.667,g/cm$^{3}$,100,$^{\circ}$C,70.1
Alizarin,C$_{14}$H$_{8}$O$_{4}$,,,279-283,$^{\circ}$C,1.540,g/cm$^{3}$,430,$^{\circ}$C,slightly to sparingly soluble
Clemizole,C$_{19}$H$_{20}$ClN$_{3}$,,,,,,,,,
Tris(acetylacetonato)iron(III),Fe(C$_{5}$H$_{7}$O$_{2}$)$_{3}$,353.17,g/mol,180-181,$^{\circ}$C,1.348,g/cm$^{3}$,,,2
Acedoben,C$_{9}$H$_{9}$NO$_{3}$,,,259-262,$^{\circ}$C,,,,,
Pulvinone,C$_{17}$H$_{12}$O$_{3}$,,,243-247,$^{\circ}$C,,,,,Insoluble
Doxacurium chloride,,,,,,,,,,
Oseltamivir,C$_{16}$H$_{28}$N$_{2}$PO$_{8}$,,,,,,,,,
Centalun,C$_{11}$H$_{12}$O$_{2}$,,,,,,,,,
Desomorphine,C$_{17}$H$_{21}$NO$_{2}$,,,,,,,,,
Iprazochrome,C$_{12}$H$_{16}$N$_{4}$O$_{3}$,,,,,,,,,
Sulfanilamide,C$_{6}$H$_{8}$N$_{2}$O$_{2}$S,,,165,$^{\circ}$C,1.08,g/cm$^{3}$,,,
Blonanserin,C$_{23}$H$_{30}$FN$_{3}$,,,,,,,,,
Sodium phenylbutyrate,,,,,,,,,,
Nicotinamide riboside,C$_{11}$H$_{15}$N$_{2}$O$^{+}_{5}$,255.25,g/mol,,,,,,,
Succinaldehyde,C$_{4}$H$_{6}$O$_{2}$,,,,,1.064,g/cm$^{3}$,58,$^{\circ}$C,with hydration
Tris(dimethylamino)gallium dimer,C$_{12}$H$_{36}$Ga$_{2}$N$_{6}$,,,,,,,,,
Valganciclovir,C$_{14}$H$_{22}$N$_{6}$O$_{5}$,,,,,,,,,
Losigamone,C$_{12}$H$_{11}$ClO$_{4}$,,,,,,,,,
Barium hypochlorite,Ba(ClO)$_{2}$,240.232,g/mol,235,$^{\circ}$C,,,,,reacts
Lithium fluoride,LiF,25.939(2),g/mol,845,$^{\circ}$C,2.635,g/cm$^{3}$,1676,$^{\circ}$C,0.27
Glycerol 3-phosphate,C$_{3}$H$_{9}$O$_{6}$P,,,,,,,,,
Indobufen,C$_{18}$H$_{17}$NO$_{3}$,,,,,,,,,
Pyrabactin,C$_{16}$H$_{13}$BrN$_{2}$O$_{2}$S,,,,,,,,,
Ethynol,C$_{2}$H$_{2}$O,,,,,,,77.1,$^{\circ}$C,
H-89,C$_{20}$H$_{20}$BrN$_{3}$O$_{2}$S,,,,,,,,,Soluble to 25
Butyrylcholine,C$_{9}$H$_{20}$NO$^{+}_{2}$,174.262,g/mol,,,,,,,
Benzyl cyanide,C$_{8}$H$_{7}$N,117.15,g/mol,-24,$^{\circ}$C,1.015,g/cm$^{3}$,233-234,$^{\circ}$C,
LAE-32,C$_{18}$H$_{21}$N$_{3}$O,,,,,,,,,
Silver hexafluorophosphate,AgPF$_{6}$,252.83,g/mol,102,$^{\circ}$C,,,,,organic solvents
Heptaminol,C$_{8}$H$_{19}$NO,145.243,g/mol,,,,,250,$^{\circ}$C,
Benzo(k)fluoranthene,C$_{20}$H$_{12}$,,,217,$^{\circ}$C,1.286,g/cm$^{3}$,,,
Voglibose,C$_{10}$H$_{21}$NO$_{7}$,,,,,,,,,
Isocyanic acid,HNCO,43.03,g/mol,-86,$^{\circ}$C,1.14,g/cm$^{3}$,23.5,$^{\circ}$C,Dissolves
Carminic acid,C$_{22}$H$_{20}$O$_{13}$,492.38,g/mol,120,$^{\circ}$C,,,,,
Cefapirin,C$_{17}$H$_{17}$N$_{3}$O$_{6}$S$_{2}$,,,,,,,,,
Amonafide,C$_{16}$H$_{17}$N$_{3}$O$_{3}$,,,,,,,,,
Glutaryl-CoA,C$_{26}$H$_{42}$N$_{7}$O$_{19}$P$_{3}$S,881.635,g/mol,,,,,,,
Piperidylthiambutene,C$_{17}$H$_{21}$NS$_{2}$,,,188,$^{\circ}$C,,,,,
Ipronidazole,C$_{7}$H$_{11}$N$_{3}$O$_{2}$,,,,,,,,,
Tryptophol,C$_{10}$H$_{11}$NO,,,59,$^{\circ}$C,,,,,
Ammonium dichromate,(NH$_{4}$)$_{2}$Cr$_{2}$O$_{7}$,252.07,g/mol,180,$^{\circ}$C,2.115,g/cm$^{3}$,,,18.2
Miltefosine,C$_{21}$H$_{46}$NO$_{4}$P,,,,,,,,,
Potassium nitrite,KNO$_{2}$,85.10379,g/mol,440.02,$^{\circ}$C,1.914986,g/cm$^{3}$,537,$^{\circ}$C,281
Propyliodone,C$_{10}$H$_{11}$I$_{2}$NO$_{3}$,,,,,,,,,
Isomigrastatin,C$_{27}$H$_{39}$NO$_{7}$,489.60,g/mol,,,,,,,
BOH (drug),,,,,,,,,,
Lactic acid O-carboxyanhydride,C$_{4}$H$_{4}$O$_{4}$,,,28,$^{\circ}$C,,,,,
Elinogrel,C$_{20}$H$_{15}$ClFN$_{5}$O$_{5}$S$_{2}$,,,,,,,,,
Dichlorophenylphosphine,C$_{6}$H$_{5}$Cl$_{2}$P,,,-51,$^{\circ}$C,,,222,$^{\circ}$C,insoluble
Chromium(II) silicide,CrSi$_{2}$,108.167,g/mol,1470,$^{\circ}$C,4.39,g/cm$^{3}$,,,insoluble
L-Photo-Leucine,C$_{5}$H$_{9}$N$_{3}$O$_{2}$,,,,,,,,,10
Bucolome,C$_{14}$H$_{22}$N$_{2}$O$_{3}$,,,,,,,,,
Endralazine,C$_{14}$H$_{15}$N$_{5}$O,,,,,,,,,
Hydroxybupropion,C$_{13}$H$_{18}$ClNO$_{2}$,,,,,,,,,
Phenylpropylaminopentane,C$_{14}$H$_{23}$N,,,,,,,,,
Acid red 88,C$_{20}$H$_{13}$N$_{2}$NaO$_{4}$S,,,280,$^{\circ}$C,,,,,
TES (buffer),C$_{6}$H$_{15}$NO$_{6}$S,229.25,g/mol,,,,,,,
Copper(II) bromide,CuBr$_{2}$,223.37,g/mol,498,$^{\circ}$C,,,900,$^{\circ}$C,55.7
SCH-48461,C$_{26}$H$_{27}$NO$_{3}$,,,,,,,,,
Adipic acid dihydrazide,C$_{6}$H$_{14}$N$_{4}$O$_{2}$,174.20,g/mol,176,$^{\circ}$C,,,,,
Carteolol,C$_{16}$H$_{24}$N$_{2}$O$_{3}$,,,,,,,,,
Sulforaphane,C$_{6}$H$_{11}$NOS$_{2}$,177.29,g/mol,,,,,,,
Ryodipine,C$_{18}$H$_{19}$F$_{2}$NO$_{5}$,,,,,,,,,
Acetaldehyde,C$_{2}$H$_{4}$O,,,-123.37,$^{\circ}$C,,,20.2,$^{\circ}$C,soluble
Chrysolaminarin,variable,,,273,$^{\circ}$C,,,,,Soluble
Fluorene,C$_{13}$H$_{10}$,166.223,g/mol,116-117,$^{\circ}$C,,,295,$^{\circ}$C,1.992
Chlorfenvinphos,C$_{12}$H$_{14}$Cl$_{3}$O$_{4}$P,,,,,,,,,145
Aconitic acid,C$_{6}$H$_{6}$O$_{6}$,,,190,$^{\circ}$C,,,,,
Temocillin,C$_{16}$H$_{18}$N$_{2}$O$_{7}$S$_{2}$,,,,,,,,,
Titanium isopropoxide,C$_{12}$H$_{28}$O$_{4}$Ti,284.215,g/mol,17,$^{\circ}$C,0.96,g/cm$^{3}$,232,$^{\circ}$C,Reacts to form TiO$_{2}$
ADDA (amino acid),C$_{20}$H$_{29}$NO$_{3}$,,,,,,,,,
Norvaline,C$_{5}$H$_{11}$NO$_{2}$,,,,,,,,,
Buserelin,C$_{62}$H$_{90}$N$_{16}$O$_{15}$,,,,,,,,,
Amurensin E,C$_{70}$H$_{50}$O$_{15}$,1131.14,g/mol,,,,,,,
Pheneridine,C$_{22}$H$_{27}$NO$_{2}$,,,,,,,,,
Belotecan,C$_{25}$H$_{27}$N$_{3}$O$_{4}$,,,,,,,,,
Copper(I) sulfate,Cu$_{2}$SO$_{4}$,223.15,g/mol,,,,,,,
Eslicarbazepine acetate,,,,,,,,,,
Satavaptan,C$_{33}$H$_{45}$N$_{3}$O$_{8}$S,,,,,,,,,
Thallium hydride,TlH$_{3}$,,,,,,,,,
N-Acetylserotonin,C$_{12}$H$_{14}$N$_{2}$O$_{2}$,218.252,g/mol,,,,,,,
Metisazone,C$_{10}$H$_{10}$N$_{4}$OS,234.28,g/mol,,,,,,,
Nifuratel,C$_{10}$H$_{11}$N$_{3}$O$_{5}$S,,,,,,,,,
Azacyclonol,C$_{18}$H$_{21}$NO,,,,,,,,,