Name,formula,Property Molar Mass,Property Molar Mass units,Property Melting Point,Property Melting Point units,Property Density,Property Density units,Property Boiling Point,Property Boiling Point units,Property Solubility
Salicylic acid,C$_{7}$H$_{6}$O$_{3}$,,,158.6,$^{\circ}$C,1.443,g/cm$^{3}$,200,$^{\circ}$C,1.24
Tetuin,C$_{21}$H$_{20}$O$_{10}$,432.37,g/mol,,,,,,,
Tirilazad,C$_{38}$H$_{52}$N$_{6}$O$_{2}$,,,,,,,,,
Simvastatin,C$_{25}$H$_{38}$O$_{5}$,,,,,,,,,
GSK2606414,C$_{24}$H$_{20}$F$_{3}$N$_{5}$O,,,,,,,,,
Mexacarbate,C$_{12}$H$_{18}$N$_{2}$O$_{2}$,,,85,$^{\circ}$C,1.077,g/cm$^{3}$,318,$^{\circ}$C,
Anacardic acids,C$_{22}$H$_{30}$O$_{3}$,342.4718,g/mol,,,,,,,
Vitexin,C$_{21}$H$_{20}$O$_{10}$,432.38,g/mol,203-204,$^{\circ}$C,,,,,
Cariporide,C$_{12}$H$_{17}$N$_{3}$O$_{3}$S,,,,,,,,,
Proxymetacaine,C$_{16}$H$_{26}$N$_{2}$O$_{3}$,,,,,,,,,
Ethylmethylthiambutene,C$_{15}$H$_{19}$NS$_{2}$,,,,,,,,,
Gadolinium(III) chloride,GdCl$_{3}$,263.61,g/mol,609,$^{\circ}$C,4.52,g/cm$^{3}$,1580,$^{\circ}$C,soluble
Quinpirole,C$_{30}$H$_{52}$O,219.33,g/mol,,,,,,,
Trimethylsilyl iodide,C$_{3}$H$_{9}$ISi,,,,,,,106,$^{\circ}$C,
Carbamoyl phosphate,CH$_{2}$NO$_{5}$P$^{2-}$,141.020,g/mol,,,,,,,
Ruxolitinib,C$_{17}$H$_{18}$N$_{6}$,,,,,,,,,
Xorphanol,C$_{23}$H$_{31}$NO,,,,,,,,,
Enalaprilat,C$_{18}$H$_{24}$N$_{2}$O$_{5}$,,,,,,,,,
Boron monofluoride,BF,,,,,,,,,
Methylidyne radical,CH$^{3.}$,,,,,,,,,Reacts
LR132,C$_{18}$H$_{26}$N$_{2}$Cl$_{2}$,,,,,,,,,
Phosphoribosylaminoimidazolesuccinocarboxamide,C$_{13}$H$_{19}$N$_{4}$O$_{12}$P,,,,,,,,,
Gabaculine,C$_{7}$H$_{9}$NO$_{2}$,,,,,,,,,
JWH-133,C$_{22}$H$_{32}$O,,,,,,,,,
Dizocilpine,C$_{16}$H$_{15}$N,,,68.75,$^{\circ}$C,,,,,
Lithium molybdate,Li$_{2}$MoO$_{4}$,173.82,g/mol,705,$^{\circ}$C,,,,,very soluble
Gefitinib,C$_{22}$H$_{24}$ClFN$_{4}$O$_{3}$,,,,,,,,,
Acediasulfone,C$_{14}$H$_{14}$N$_{2}$O$_{4}$S,,,,,,,,,
JWH-073,C$_{23}$H$_{21}$NO,,,,,,,,,
Benzisothiazolinone,C$_{7}$H$_{5}$NOS,,,158,$^{\circ}$C,,,,,1
Fosphenytoin,C$_{16}$H$_{15}$N$_{2}$O$_{6}$P,,,,,,,,,
Bromodifluoromethane,CHBrF$_{2}$,130.92,g/mol,-145,$^{\circ}$C,,,-14.6,$^{\circ}$C,Insoluble
Titanium tetrachloride,TiCl$_{4}$,189.679,g/mol,-24.1,$^{\circ}$C,1.726,g/cm$^{3}$,136.4,$^{\circ}$C,Reacts
DMBMPP,C$_{21}$H$_{26}$NO$_{3}$Br,,,,,,,,,
Psoralen,C$_{11}$H$_{6}$O$_{3}$,186.16,g/mol,158-161,$^{\circ}$C,,,,,
AP-7 (drug),C$_{7}$H$_{16}$NO$_{5}$P,225.179,g/mol,,,,,480.1,$^{\circ}$C,
Tetraaminoethylene,C$_{2}$H$_{8}$N$_{4}$,,,,,,,,,
Aceglatone,C$_{10}$H$_{10}$O$_{8}$,,,185,$^{\circ}$C,,,,,
Methylsilane,CH$_{6}$Si,46.14,g/mol,-157,$^{\circ}$C,,,-57,$^{\circ}$C,Hydrolyzes
Technetium hexafluoride,TcF$_{6}$,212,g/mol,37.4,$^{\circ}$C,,,55.3,$^{\circ}$C,
Panobinostat,C$_{21}$H$_{23}$N$_{3}$O$_{2}$,,,,,,,,,
BD1031,C$_{15}$H$_{20}$N$_{2}$Cl$_{2}$,,,,,,,,,
Protactinium(V) oxide,Pa$_{2}$O$_{5}$,,,,,,,,,
Hymecromone,C$_{10}$H$_{8}$O$_{3}$,,,,,,,,,
TC OT 39,,,,,,,,,,
Neohesperidose,C$_{12}$H$_{22}$O$_{10}$,326.29,g/mol,,,,,,,
Alglucerase,C$_{2532}$H$_{3854}$N$_{672}$O$_{711}$S$_{16}$,,,,,,,,,
Ethyl nitrate,C$_{2}$H$_{5}$NO$_{3}$,91.07,g/mol,-102,$^{\circ}$C,,,87.5,$^{\circ}$C,Decomposes
Basic beryllium acetate,C$_{12}$H$_{18}$Be$_{4}$O$_{13}$,406.3122,g/mol,285,$^{\circ}$C,,,330,$^{\circ}$C,
Histamine,C$_{5}$H$_{9}$N$_{3}$,,,83.5,$^{\circ}$C,,,209.5,$^{\circ}$C,"Easily soluble in cold water, hot water"
Chlortalidone,C$_{14}$H$_{11}$ClN$_{2}$O$_{4}$S,,,,,,,,,
Magnesium aspartate,,,,,,,,,,
Pinosylvin,C$_{14}$H$_{12}$O$_{2}$,212.244,g/mol,153-155,$^{\circ}$C,,,,,
Propionic anhydride,C$_{6}$H$_{10}$O$_{3}$,130.14,g/mol,-42,$^{\circ}$C,,,167-170,$^{\circ}$C,Reacts to give propanoic acid
Lobenzarit,C$_{14}$H$_{10}$ClNO$_{4}$,,,,,,,,,
ROD-188,C$_{20}$H$_{21}$NO$_{4}$S,,,,,,,,,
Allylescaline,C$_{13}$H$_{19}$NO$_{3}$,237.29,g/mol,,,,,,,
Tebuconazole,C$_{16}$H$_{22}$ClN$_{3}$O,,,102.4,$^{\circ}$C,,,,,0.032
Fluoranthene,C$_{16}$H$_{10}$,202.26,g/mol,110.8,$^{\circ}$C,,,375,$^{\circ}$C,265
Syringomycin E,C$_{53}$H$_{85}$ClN$_{14}$O$_{17}$,,,,,,,,,
Acetyldihydrocodeine,C$_{20}$H$_{25}$NO$_{4}$,,,,,,,,,
Gyromitrin,C$_{4}$H$_{8}$N$_{2}$O,100.12,g/mol,,,,,143,$^{\circ}$C,
Quinoline Yellow WS,C$_{18}$H$_{13}$NO$_{5/8/11}$S$_{1/2/3}$Na$_{1/2/3}$,477.38,g/mol,150,$^{\circ}$C,,,,,4
Sudan Black B,C$_{29}$H$_{24}$N$_{6}$,456.54,g/mol,120-124,$^{\circ}$C,,,,,
Galangin,C$_{15}$H$_{10}$O$_{5}$,270.24,g/mol,214-215,$^{\circ}$C,,,,,
Sebacic acid,C$_{10}$H$_{18}$O$_{4}$,,,131-134.5,$^{\circ}$C,1.209,g/cm$^{3}$,294.4,$^{\circ}$C,0.25
Muzolimine,C$_{11}$H$_{11}$Cl$_{2}$N$_{3}$O,,,,,,,,,
Molybdenum(V) chloride,Cl$_{10}$Mo$_{2}$,273.21,g/mol,194,$^{\circ}$C,2.928,g/cm$^{3}$,268,$^{\circ}$C,hydrolyzes
Malonic acid,C$_{3}$H$_{4}$O$_{4}$,,,135-137,$^{\circ}$C,1.619,g/cm$^{3}$,,,Miscible
NIM811,C$_{62}$H$_{111}$N$_{11}$O$_{12}$,1202.61,g/mol,,,,,,,
Trepipam,C$_{19}$H$_{23}$NO$_{2}$,,,,,,,,,
N-Methylconiine,C$_{9}$H$_{19}$N,,,,,,,173-174,$^{\circ}$C,
Rhodium(III) chloride,RhCl$_{3}$,209.26,g/mol,450,$^{\circ}$C,,,,,insoluble
Chlorobenzene,C$_{6}$H$_{5}$Cl,112.56,g/mol,-45,$^{\circ}$C,,,131,$^{\circ}$C,
Methylenedioxyphentermine,C$_{11}$H$_{15}$NO$_{2}$,,,,,,,,,
Perchloryl fluoride,ClO$_{3}$F,102.4496,g/mol,-147.8,$^{\circ}$C,1.434,g/cm$^{3}$,-46.7,$^{\circ}$C,0.06
Fadrozole,C$_{14}$H$_{13}$N$_{3}$,,,,,,,,,
ELB-139,C$_{14}$H$_{16}$ClN$_{3}$O,,,,,,,,,
Myricetin,C$_{15}$H$_{10}$O$_{8}$,,,,,,,,,
Decamethonium,C16H38N2+,,,,,,,,,
Ammonium nonanoate,C$_{9}$H$_{21}$NO$_{2}$,,,,,,,,,
Myricetin 3-O-rutinoside,C$_{27}$H$_{30}$O$_{17}$,626.51,g/mol,,,,,,,
Ethyl dirazepate,,,,,,,,,,
Manganese(II) phthalocyanine,C$_{32}$H$_{16}$MnN$_{8}$,567.461,g/mol,,,,,,,
Tranylcypromine,C$_{9}$H$_{11}$N,,,,,,,,,
Prometon,C$_{10}$H$_{19}$N$_{5}$O,225.29,g/mol,,,,,,,
Phosphomolybdic acid,H$_{3}$PMo$_{12}$O$_{40}$,1825.25,g/mol,,,,,158,$^{\circ}$C,
Bis(2-Hydroxyethyl) terephthalate,C$_{12}$H$_{14}$O$_{6}$,,,106,$^{\circ}$C,,,,,17.61
Ethacridine lactate,,,,,,,,,,
Tungsten diselenide,Se$_{2}$W,341.76,g/mol,> 1200,$^{\circ}$C,9.32,g/cm$^{3}$,,,insoluble
New methylene blue,C$_{18}$H$_{22}$N$_{3}$S:SClZnCl$_{2}$,484.22,g/mol,239,$^{\circ}$C,,,,,
Chromium(II) selenide,CrSe,130.96,g/mol,~1500,$^{\circ}$C,6.74,g/cm$^{3}$,,,insoluble
Iohexol,C$_{19}$H$_{26}$I$_{3}$N$_{3}$O$_{9}$,,,,,,,,,
Felinine,C$_{8}$H$_{17}$NO$_{3}$S,207.29,g/mol,,,,,,,
Anthrone,C$_{14}$H$_{10}$O,,,155-158,$^{\circ}$C,,,721,$^{\circ}$C,Insoluble
Ecallantide,C$_{305}$H$_{442}$N$_{88}$O$_{91}$S$_{8}$,,,,,,,,,
JWH-007,C$_{25}$H$_{25}$NO,,,,,,,,,
Delphinidin-3-O-(6-p-coumaroyl)glucoside,C$_{30}$H$_{27}$O$^{+}_{14}$,611.52,g/mol,,,,,,,
BML-190,C$_{23}$H$_{23}$ClN$_{2}$O$_{4}$,,,,,,,,,
Boron phosphate,BPO$_{4}$,105.782,g/mol,,,2.52,g/cm$^{3}$,,,
Leucocyanidin,C$_{15}$H$_{14}$O$_{7}$,306.26,g/mol,,,,,,,
Tetracyanoquinodimethane,C$_{12}$H$_{4}$N$_{4}$,204.19,g/mol,293.5,$^{\circ}$C,,,,,
Sulfur tetrachloride,SCl$_{4}$,,,-31,$^{\circ}$C,,,-20,$^{\circ}$C,soluble in water
Chlorous acid,HClO$_{2}$,68.46,g/mol,,,,,,,
AP5,C$_{5}$H$_{12}$NO$_{5}$P,197.13,g/mol,,,,,482.1,$^{\circ}$C,"Ammonium hydroxide, 50"
Tellurium dioxide,TeO$_{2}$,159.60,g/mol,732,$^{\circ}$C,,,1245,$^{\circ}$C,negligible
Atropine,C$_{17}$H$_{23}$NO$_{3}$,,,,,,,,,
Hexamethyltungsten,C$_{6}$H$_{18}$W,,,,,,,,,
Pigment Yellow 10,C$_{16}$H$_{12}$Cl$_{2}$N$_{4}$O,,,,,,,,,
THIQ,C$_{33}$H$_{41}$ClN$_{6}$O$_{2}$,,,,,,,,,
Arsenous acid,H$_{3}$AsO$_{3}$,125.94,g/mol,,,,,,,
Exemestane,C$_{20}$H$_{24}$O$_{2}$,,,,,,,,,
Veratrole alcohol,C$_{9}$H$_{12}$O$_{3}$,,,,,,,296-297,$^{\circ}$C,
Micronomicin,C$_{20}$H$_{41}$N$_{5}$O$_{7}$,,,,,,,,,
Trimethylborane,C$_{3}$H$_{9}$B,55.92,g/mol,-161.5,$^{\circ}$C,,,-20.2,$^{\circ}$C,"slight, Highly reactive"
Isosafrole,C$_{10}$H$_{10}$O$_{2}$,,,8.2,$^{\circ}$C,,,253,$^{\circ}$C,
Dihydromorphine,C$_{17}$H$_{21}$NO$_{3}$,,,,,,,,,
Cefsulodin,C22H21N4O8S2charge+,,,,,,,,,
Hinokitiol,C$_{10}$H$_{12}$O$_{2}$,,,50-52,$^{\circ}$C,,,140,$^{\circ}$C,
Trimethylolethane,C$_{5}$H$_{12}$O$_{3}$,120.15,g/mol,180,$^{\circ}$C,,,,,
Methotrexate,C$_{20}$H$_{22}$N$_{8}$O$_{5}$,,,,,,,,,
Dilithium,Li$_{2}$,,,,,,,,,
Pterulone,C$_{13}$H$_{11}$ClO$_{2}$,,,,,,,,,
Cocamide DEA,"CH$_{3}$(CH$_{2}$)$_{n}$C(O)N(CH$_{2}$CH$_{2}$OH)$_{2}$,n~8-18",,,,,,,,,
Clocental,C$_{10}$H$_{14}$N$_{2}$O$_{3}$,,,,,,,,,
Acarviosin,C$_{14}$H$_{25}$NO$_{8}$,,,,,,,,,
Hydrogen astatide,HAt,,,,,,,,,
Indacrinone,C$_{18}$H$_{14}$Cl$_{2}$O$_{4}$,,,,,,,,,
Rubidium carbonate,Rb$_{2}$CO$_{3}$,230.945,g/mol,837,$^{\circ}$C,,,900,$^{\circ}$C,Very soluble
Sulfuryl chloride fluoride,ClFO$_{2}$S,118.52,g/mol,-124.7,$^{\circ}$C,,,7.1,$^{\circ}$C,
Iron(III) nitrate,Fe(NO$_{3}$)$_{3}$,241.86,g/mol,47.2,$^{\circ}$C,1.68,g/cm$^{3}$,125,$^{\circ}$C,150
Carbenicillin,C$_{17}$H$_{18}$N$_{2}$O$_{6}$S,,,,,,,,,
HBT (explosive),C$_{2}$H$_{4}$N$_{10}$,,,,,,,,,
Panobacumab,C$_{38714}$H$_{60189}$N$_{10637}$O$_{12187}$S$_{322}$,,,,,,,,,
Diacetylnalorphine,C$_{23}$H$_{25}$NO$_{5}$,395.4,g/mol,,,,,,,
Mallotochromene,C$_{24}$H$_{26}$O$_{8}$,442.45,g/mol,,,,,,,
Aleuritic acid,C$_{16}$H$_{32}$O$_{5}$,304.43,g/mol,,,,,,,
Gamma-Endorphin,C$_{83}$H$_{131}$N$_{19}$O$_{27}$S,,,,,,,,,
Germane,GeH$_{4}$,,,,,,,,,low
Tribromoisocyanuric acid,C$_{3}$Br$_{3}$N$_{3}$O$_{3}$,366,g/mol,,,,,,,
Purpurogallin,C$_{11}$H$_{8}$O$_{5}$,220.17,g/mol,,,,,,,
Barium acetylacetonate,BaC$_{10}$H$_{14}$O$_{4}$,,,,,,,,,
Indium(III) hydroxide,In(OH)$_{3}$,165.8404,g/mol,150,$^{\circ}$C,4.38,g/cm$^{3}$,,,insoluble
Pentyl butyrate,C$_{9}$H$_{18}$O$_{2}$,158.24,g/mol,-73.2,$^{\circ}$C,0.86,g/cm$^{3}$,186,$^{\circ}$C,
THJ-2201,C$_{23}$H$_{21}$FN$_{2}$O,,,,,,,,,
Iodocyanopindolol,C$_{16}$H$_{20}$IN$_{3}$O$_{2}$,,,,,,,,,
TCS-OX2-29,C$_{23}$H$_{31}$N$_{3}$O$_{3}$,,,,,,,,,
Calcium silicide,CaSi$_{2}$,96.251,g/mol,1033,$^{\circ}$C,2.5,g/cm$^{3}$,,,insoluble
Oxymorphol,C$_{17}$H$_{21}$NO$_{4}$,,,,,,,,,
SR-57227,C$_{10}$H$_{14}$ClN$_{3}$,,,,,,,,,
Meta-Hydroxyphenylhydracrylic acid,C$_{9}$H$_{10}$O$_{4}$,182.173,g/mol,,,,,,,
Fontolizumab,C$_{6500}$H$_{9974}$N$_{1726}$O$_{2026}$S$_{52}$,,,,,,,,,
Erdosteine,C$_{8}$H$_{11}$NO$_{4}$S$_{2}$,,,,,,,,,
Mebeverine,C$_{25}$H$_{35}$NO$_{5}$,,,,,,,,,
Phlorofucofuroeckol A,C$_{30}$H$_{18}$O$_{14}$,602.45,g/mol,,,,,,,
Niacin,C$_{6}$NH$_{5}$O$_{2}$,,,,,,,,,18
Phytanoyl-CoA,C$_{41}$H$_{74}$N$_{7}$O$_{17}$P$_{3}$S,1062.05,g/mol,,,,,,,
Gadoleic acid,C$_{20}$H$_{38}$O$_{2}$,,,23,$^{\circ}$C,,,,,
Rubixanthin,C$_{40}$H$_{56}$O,552.85,g/mol,160,$^{\circ}$C,,,,,
Vanillic acid,C$_{8}$H$_{8}$O$_{4}$,168.14,g/mol,210-213,$^{\circ}$C,,,,,
Akuammine,C$_{22}$H$_{26}$N$_{2}$O$_{4}$,,,,,,,,,
Methacryloyl chloride,C$_{4}$H$_{5}$ClO,,,,,,,95-96,$^{\circ}$C,Reacts
Lead zirconate titanate,PbZrxTi1-xO3(0$\leq$x$\leq$1),303.065-346.4222,g/mol,,,,,,,
Benzquinamide,C$_{22}$H$_{32}$N$_{2}$O$_{5}$,,,,,,,,,
Disodium octaborate tetrahydrate,Na$_{2}$B$_{8}$O$_{13}$.4H$_{2}$O,412.5270,g/mol,,,,,,,
Epiandrosterone,C$_{19}$H$_{30}$O$_{2}$,,,,,,,,,
SIB-1893,C$_{14}$H$_{13}$N,,,,,,,,,
Iodophenpropit,C$_{15}$H$_{19}$IN$_{4}$S,,,,,,,,,
Perzinfotel,C$_{9}$H$_{13}$N$_{2}$O$_{5}$P,,,,,,,,,
SEGPHOS,C$_{38}$H$_{28}$O$_{4}$P$_{2}$,610.57,g/mol,,,,,,,organic solvents
Luteone (isoflavone),C$_{20}$H$_{18}$O$_{6}$,,,,,,,,,
Hydrastine,C$_{21}$H$_{21}$NO$_{6}$,,,,,,,,,
Phosphoserine,C$_{3}$H$_{8}$NO$_{6}$P,185.073,g/mol,228,$^{\circ}$C,,,,,
Heparin,C$_{12}$H$_{19}$NO$_{20}$S$_{3}$,,,,,,,,,
Methylenedioxyallylamphetamine,C$_{13}$H$_{17}$NO$_{2}$,219.283,g/mol,,,,,,,
Tetrahydrozoline,C$_{13}$H$_{16}$N$_{2}$,200.28,g/mol,,,,,,,
Trifluoroiodomethane,CF$_{3}$I,195.91,g/mol,-110,$^{\circ}$C,,,-22.5,$^{\circ}$C,Slightly
Acetylcarnitine,C$_{9}$H$_{17}$NO$_{4}$,,,,,,,,,
Arsenic tribromide,AsBr$_{3}$,314.634,g/mol,31.1,$^{\circ}$C,3.54,g/cm$^{3}$,221,$^{\circ}$C,decomposes
Platinum(IV) bromide,PtBr$_{4}$,514.694,g/mol,,,,,,,0.41
Diethylaluminium chloride,C$_{4}$H$_{10}$AlCl,,,-50,$^{\circ}$C,,,125,$^{\circ}$C,
Pipemidic acid,,,,,,,,,,
Trifluralin,C$_{13}$H$_{16}$F$_{3}$N$_{3}$O$_{4}$,335.28,g/mol,46-47,$^{\circ}$C,,,139-140,$^{\circ}$C,0.0024
Drometrizole trisiloxane,C$_{24}$H$_{39}$N$_{3}$O$_{3}$Si$_{3}$,,,,,,,,,
Climbazole,C$_{15}$H$_{17}$ClN$_{2}$O$_{2}$,,,,,,,,,
Hydrofuramide,C$_{15}$H$_{12}$N$_{2}$O$_{3}$,,,118-119,$^{\circ}$C,,,,,
Gentisic acid,C$_{7}$H$_{6}$O$_{4}$,154.12,g/mol,200-205,$^{\circ}$C,,,,,
Magnesium chromate,MgCrO$_{4}$,,,,,,,,,
White catalyst,C$_{18}$H$_{20}$O$_{6}$PdS$_{2}$,,,,,,,,,
LY-215 840,,,,,,,,,,
Sulfadicramide,C$_{11}$H$_{14}$N$_{2}$O$_{3}$S,254.30546,g/mol,,,,,,,
Sabinene,C$_{10}$H$_{16}$,136.23,g/mol,,,,,163-164,$^{\circ}$C,
Iridium(III) chloride,IrCl$_{3}$,298.58,g/mol,763,$^{\circ}$C,,,,,"insoluble (anhydrous IrCl$_{3}$), soluble (hydrated derivative)"
Lead(II) thiocyanate,Pb(SCN)$_{2}$,323.3648,g/mol,190,$^{\circ}$C,3.82,g/cm$^{3}$,,,0.553
Oxalyldihydrazide,C$_{2}$H$_{6}$N$_{4}$O$_{2}$,,,242-244,$^{\circ}$C,,,,,
Ethylmethylamine,C$_{3}$H$_{9}$N,,,,,,,,,
Ethocybin,C$_{14}$H$_{21}$N$_{2}$O$_{4}$P,,,,,,,,,
Mebutizide,C$_{13}$H$_{20}$ClN$_{3}$O$_{4}$S$_{2}$,,,,,,,,,
Uranyl peroxide,UO$_{4}$.NH$_{2}$O,302.03,g/mol,,,,,,,
Calcium iodide,CaI$_{2}$,293.887,g/mol,779,$^{\circ}$C,3.956,g/cm$^{3}$,1100,$^{\circ}$C,64.6
Decacarbonyldihydridotriosmium,H$_{2}$Os$_{3}$(CO)$_{10}$,852.81,g/mol,,,3.48,g/cm3,,,
Atagabalin,C$_{10}$H$_{19}$NO$_{2}$,,,,,,,,,
Carvone,C$_{10}$H$_{14}$O,150.22,g/mol,25.2,$^{\circ}$C,0.96,g/cm$^{3}$,231,$^{\circ}$C,Insoluble
Cadmium stearate,C$_{36}$H$_{70}$CdO$_{4}$,,,134,$^{\circ}$C,1.80,g/cm$^{3}$,,,
Dimethylol ethylene urea,(C$_{2}$H$_{2}$N$_{2}$(CH$_{2}$OH)$_{2}$)CO,,,,,,,,,72g/L H2O at 25$^{\circ}$C
Myricanone,C$_{21}$H$_{24}$O$_{5}$,356.41,g/mol,,,,,,,
Arsanilic acid,C$_{6}$H$_{8}$AsNO$_{3}$,217.054,g/mol,232,$^{\circ}$C,1.957,g/cm$^{3}$,,,
Picrocrocin,C$_{16}$H$_{26}$O$_{7}$,330.37,g/mol,154-156,$^{\circ}$C,,,520.4,$^{\circ}$C,
Caesium hydroxide,CsOH,149.912,g/mol,272,$^{\circ}$C,3.675,g/cm$^{3}$,,,300
Almokalant,C$_{18}$H$_{28}$N$_{2}$O$_{3}$S,,,,,,,,,
Damascone,C$_{13}$H$_{20}$O,192.30,g/mol,,,,,,,
Barrelene,C$_{8}$H$_{8}$,,,,,,,153.7,$^{\circ}$C,
Chlormerodrin,C$_{5}$H$_{11}$ClHgN$_{2}$O$_{2}$,,,,,,,,,
Chiniofon,C$_{9}$H$_{6}$INO$_{4}$S,,,,,,,,,
Oleandrin,C$_{32}$H$_{48}$O$_{9}$,576.72,g/mol,250.0,$^{\circ}$C,,,,,
Dolichol monophosphate mannose,C$_{106}$H$_{175}$O$_{9}$P,,,,,,,,,
Tyropanoic acid,C$_{15}$H$_{18}$I$_{3}$NO$_{3}$,641.02,g/mol,,,,,,,
Canadine,C$_{20}$H$_{21}$NO$_{4}$,,,,,,,,,
BD1063,C$_{13}$H$_{18}$N$_{2}$Cl$_{2}$,,,,,,,,,
Acetoacetanilide,C$_{10}$H$_{11}$NO$_{2}$,,,83,$^{\circ}$C,,,,,low
Tellurium hexafluoride,TeF$_{6}$,241.590,g/mol,-38.9,$^{\circ}$C,0.0106,g/cm$^{3}$,-37.6,$^{\circ}$C,decomposes
Rizatriptan,C$_{15}$H$_{19}$N$_{5}$,,,,,,,,,
Pizotifen,C$_{19}$H$_{21}$NS,,,,,,,,,
Griseofulvin,C$_{17}$H$_{17}$ClO$_{6}$,,,,,,,,,
Brunfelsamidine,C$_{5}$H$_{7}$N$_{3}$,,,,,,,,,
Dimethyl acetylenedicarboxylate,C$_{6}$H$_{6}$O$_{4}$,142.11,g/mol,,,1.1564,g/cm$^{3}$,195-198,$^{\circ}$C,
SYBR Green I,C$_{32}$H$_{37}$N$_{4}$S$^{+}$,,,,,,,,,
Sodium valproate,,,,,,,,,,
Dimaprit,C$_{6}$H$_{15}$N$_{3}$S,,,,,,,,,
Methyllycaconitine,C$_{37}$H$_{50}$N$_{2}$O$_{10}$,,,,,,,,,
Swainsonine,C$_{8}$H$_{15}$NO$_{3}$,,,143-144,$^{\circ}$C,,,,,10
Methyl cyanoformate,C$_{3}$H$_{3}$NO$_{2}$,,,,,1.072,g/cm$^{3}$,100-101,$^{\circ}$C,
Methyltrichlorosilane,CH$_{3}$Cl$_{3}$Si,,,-77,$^{\circ}$C,,,66,$^{\circ}$C,reaction in water
Carbofuran,C$_{12}$H$_{15}$NO$_{3}$,,,151,$^{\circ}$C,1.18,g/cm$^{3}$,313.3,$^{\circ}$C,320
Potassium bifluoride,HF$_{2}$K,78.103,g/mol,238.7,$^{\circ}$C,2.37,g/cm$^{3}$,,,24.5
Dipipanone,C$_{24}$H$_{31}$NO,,,,,,,,,
GFT505,C$_{22}$H$_{24}$O$_{4}$S,,,,,,,,,
Oxazepam,C$_{15}$H$_{11}$N$_{2}$O$_{2}$Cl,,,,,,,,,179
Phenazone,C$_{11}$H$_{12}$N$_{2}$O,,,,,,,,,
Furanyl-fentanyl,C$_{24}$H$_{26}$N$_{2}$O$_{2}$,,,,,,,,,
Selinene,C$_{15}$H$_{24}$,,,,,$\alpha$: 0.914,g/cm$^{3}$,,,
Octane,C$_{8}$H$_{18}$,,,,,,,,,0.007
Nonahydroxytriphenic acid,C$_{21}$H$_{14}$O$_{15}$,506.33,g/mol,,,,,,,
Cladinose,C$_{8}$H$_{16}$O$_{4}$,176.21,g/mol,,,,,,,
Tetraphlorethol C,C$_{24}$H$_{18}$O$_{12}$,498.39,g/mol,,,,,,,
Gantenerumab,C$_{6496}$H$_{10072}$N$_{1740}$O$_{2024}$S$_{42}$,,,,,,,,,
Diethylaluminium cyanide,C$_{4}$H$_{10}$AlCN,,,,,,,162,$^{\circ}$C,"Benzene, Toluene, diisopropyl ether"
Fluo-4,C$_{36}$H$_{30}$F$_{2}$N$_{2}$O$_{13}$,,,,,,,,,
Iodine trifluoride,IF$_{3}$,183.9,g/mol,decomposes above-28,$^{\circ}$C,,,,,
Pyrogallol,C$_{6}$H$_{6}$O$_{3}$,126.11,g/mol,131-134,$^{\circ}$C,1.45,g/cm$^{3}$,309,$^{\circ}$C,
Muscazone,C$_{5}$H$_{6}$N$_{2}$O$_{4}$,,,190,$^{\circ}$C,,,,,
Histapyrrodine,C$_{19}$H$_{24}$N$_{2}$,,,,,,,,,
EEE (psychedelic),C$_{15}$H$_{25}$NO$_{3}$,267.36,g/mol,,,,,,,
Olprinone,C$_{14}$H$_{10}$N$_{4}$O,,,,,,,,,
Tautomycin,C$_{41}$H$_{66}$O$_{13}$,,,,,,,,,
Benzothiazine,C$_{8}$H$_{7}$NS,,,,,,,,,
Phosphoryl bromide,POBr$_{3}$,286.69,g/mol,56,$^{\circ}$C,,,192,$^{\circ}$C,
Ethyl loflazepate,,,,,,,,,,
Opipramol,C$_{23}$H$_{29}$N$_{3}$O,,,,,,,,,
Myristamine oxide,C$_{16}$H$_{35}$NO,,,-10,$^{\circ}$C,,,100,$^{\circ}$C,
Vitisin B (pyranoanthocyanin),C$_{25}$H$_{25}$O$^{+}_{12}$,517.45,g/mol,,,,,,,
Isorhapontigenin,C$_{15}$H$_{14}$O$_{4}$,258.27,g/mol,,,,,,,
Amphetamine,C$_{9}$H$_{13}$N,,,,,,,,,
Dextromethorphan,C$_{18}$H$_{25}$NO,,,,,,,,,
Phycoerythrobilin,C$_{33}$H$_{38}$N$_{4}$O$_{6}$,586.678,g/mol,,,,,,,
BOHD (psychedelic),C$_{11}$H$_{17}$NO$_{3}$,211.26,g/mol,,,,,,,
Crotonic acid,C$_{4}$H$_{6}$O$_{2}$,86.09,g/mol,70-73,$^{\circ}$C,1.02,g/cm$^{3}$,185-189,$^{\circ}$C,
Nifurtoinol,C$_{9}$H$_{8}$N$_{4}$O$_{6}$,,,,,,,,,
Uridine,C$_{9}$H$_{12}$N$_{2}$O$_{6}$,,,167.2,$^{\circ}$C,,,,,
RTI-55,C$_{16}$H$_{20}$INO$_{2}$,,,,,,,,,
K-Strophanthidin,C$_{23}$H$_{32}$O$_{6}$,404.5,g/mol,169,$^{\circ}$C,,,620.7,$^{\circ}$C,
Azapropazone,C$_{16}$H$_{20}$N$_{4}$O$_{2}$,,,,,,,,,
Para-Methoxyphenylpiperazine,C$_{11}$H$_{16}$N$_{2}$O,,,,,,,,,
Calycosin,C$_{16}$H$_{12}$O$_{5}$,284.26,g/mol,,,,,,,
Homogentisic acid,C$_{8}$H$_{8}$O$_{4}$,,,150,$^{\circ}$C,,,,,
Seletracetam,C$_{10}$H$_{14}$F$_{2}$N$_{2}$O,,,,,,,,,
Trifluoroacetic acid,C$_{2}$HF$_{3}$O$_{2}$,114.02,g/mol,-15.4,$^{\circ}$C,,,72.4,$^{\circ}$C,miscible
Acetyl cyanide,C$_{3}$H$_{3}$NO,,,,,0.9745,g/cm$^{3}$,,,
Yuanhunine,C$_{21}$H$_{25}$NO$_{4}$,,,,,,,,,
Isoniazid,C$_{6}$H$_{7}$N$_{3}$O,,,,,,,,,
Metolazone,C$_{16}$H$_{16}$ClN$_{3}$O$_{3}$S,,,,,,,,,
Prunasin,C$_{14}$H$_{17}$NO$_{6}$,295.29,g/mol,,,,,,,
Zymosterol,C$_{27}$H$_{44}$O,384.64,g/mol,,,,,,,
Manganese(II) phosphate,Mn$_{3}$(PO$_{4}$)$_{2}$,354.76,g/mol,,,,,,,
Sodium periodate,NaIO$_{4}$,213.8918,g/mol,300,$^{\circ}$C,3.865,g/cm$^{3}$,,,soluble
EMM (psychedelic),C$_{13}$H$_{21}$NO$_{3}$,239.314,g/mol,,,,,,,
Nonene,C$_{9}$H$_{18}$,126.24,g/mol,,,,,,,
Thunberginol G,C$_{15}$H$_{12}$O$_{5}$,272.25,g/mol,,,,,,,
Hemicholinium-3,C$_{24}$H$_{34}$N$_{2}$O$^{+2}_{4}$,,,,,,,,,
Luteolin,C$_{15}$H$_{10}$O$_{6}$,,,,,,,,,
Prostaglandin H2,C$_{20}$H$_{32}$O$_{5}$,352.465,g/mol,,,,,,,
Ceftobiprole,C$_{20}$H$_{22}$N$_{8}$O$_{6}$S$_{2}$,,,,,,,,,
Terbium(III) oxide,Tb$_{2}$O$_{3}$,,,2410,$^{\circ}$C,7.91,g/cm$^{3}$,,,
Hexabromocyclododecane,C$_{12}$H$_{18}$Br$_{6}$,641.7,g/mol,186,$^{\circ}$C,,,,,3.4
Mercury(IV) fluoride,HgF$_{4}$,276.58,g/mol,,,,,,,
Betrixaban,C$_{23}$H$_{22}$ClN$_{5}$O$_{3}$,,,,,,,,,
Diminazen,C$_{14}$H$_{15}$N$_{7}$,,,,,,,,,
Hexadimethrine bromide,"(C$_{13}$H$_{30}$Br$_{2}$N$_{2}$)$_{n}$,linearform",,,,,,,,,
Sodium laurate,C$_{12}$H$_{23}$O$_{2}$Na,222.30,g/mol,244-246,$^{\circ}$C,,,,,
Dipyridamole,C$_{24}$H$_{40}$N$_{8}$O$_{4}$,,,,,,,,,
Cadmium bromide,CdBr$_{2}$,272.22,g/mol,568,$^{\circ}$C,,,844,$^{\circ}$C,56.3
Syringaldehyde,C$_{9}$H$_{10}$O$_{4}$,182.17,g/mol,110-113,$^{\circ}$C,1.01,g/cm$^{3}$,192-193,$^{\circ}$C,Insoluble
Thiosulfurous acid,HS-S(O)-OH,,,,,,,,,
SL-164,C$_{16}$H$_{12}$Cl$_{2}$N$_{2}$O,,,,,,,,,
Trovafloxacin,C$_{20}$H$_{15}$F$_{3}$N$_{4}$O$_{3}$,,,,,,,,,
Sulfuryl chloride,SO$_{2}$Cl$_{2}$,,,-54.1,$^{\circ}$C,,,69.4,$^{\circ}$C,hydrolyzes
Evans blue,C$_{34}$H$_{24}$N$_{6}$Na$_{4}$O$_{14}$S$_{4}$,,,,,,,,,
KML-010,C$_{18}$H$_{24}$FN$_{3}$O$_{2}$,,,,,,,,,
Enallylpropymal,C$_{11}$H$_{16}$N$_{2}$O$_{3}$,,,,,,,,,
Levonantradol,C$_{27}$H$_{35}$NO$_{4}$,,,,,,,,,
Nelivaptan,C$_{30}$H$_{32}$ClN$_{3}$O$_{8}$S,,,,,,,,,
Isobenzofuran,C$_{8}$H$_{6}$O,118.13,g/mol,,,,,,,