Property Melting Point,Property Density,Property Boiling Point,Property Solubility,Property Molar Mass,Name,formula
228.8-229.7,0.828,,1,,Saccharin,C$_{7}$H$_{5}$NO$_{3}$S
-35,,340,13,,Dibutyl phthalate,C$_{16}$H$_{22}$O$_{4}$
,,,,,Dialdehyde starch,(C$_{6}$H$_{8}$O$_{5}$)$_{n}$
163-164,,,,239.31,Isoproscaline,C$_{13}$H$_{21}$NO$_{3}$
,,,,,Chlorophenylbiguanide,C$_{8}$H$_{12}$ClN$_{5}$
,,,,326.429,Octabenzone,C$_{21}$H$_{26}$O$_{3}$
,,,,,Efloxate,C$_{19}$H$_{16}$O$_{5}$
-93.78,5.527,-84.6,hydrolysis,125.966,Phosphorus pentafluoride,PF$_{5}$
39.1,,59.7,,,Teflic acid,HF$_{5}$OTe
,,,,,Nafoxidine,C$_{29}$H$_{31}$NO$_{2}$
,,,Sparingly soluble in cold water,,Xanthosine,C$_{10}$H$_{12}$N$_{4}$O$_{6}$
,,,,596.307,Heptamethine dyes,C$_{40}$H$_{52}$ClN$_{2}$
,,,,,Acetylpropionylmorphine,C$_{22}$H$_{25}$NO$_{5}$
,,,,,Bambuterol,C$_{18}$H$_{29}$N$_{3}$O$_{5}$
,,,,,Tolpiprazole,C$_{17}$H$_{24}$N$_{4}$
,,,,,Dotarizine,C$_{29}$H$_{34}$N$_{2}$O$_{2}$
,,,,,Chlorbenzoxamine,C$_{27}$H$_{31}$ClN$_{2}$O
,,,,,Trifluoroacetyl chloride,C$_{2}$ClF$_{3}$O
174,,351,sl. sol. in hot water,196.19,Xanthone,C$_{13}$H$_{8}$O$_{2}$
149.5,,,,,Tricaine mesylate,
,,,,,Maprotiline,C$_{20}$H$_{23}$N
,1.285,,,,Bisdemethoxycurcumin,C$_{19}$H$_{16}$O$_{4}$
,,,,,Orthoacetic acid,C$_{2}$H$_{6}$O$_{3}$
370,4.303,,58.7,336.89,Platinum(IV) chloride,PtCl$_{4}$
,,,,,Ramoplanin,C$_{119}$H$_{154}$ClN$_{21}$O$_{40}$
,,,,,JWH-185,C$_{25}$H$_{27}$NO
,,,,,Arachidonylcyclopropylamide,C$_{23}$H$_{37}$NO
,,,,,Nortilidine,C$_{16}$H$_{21}$NO$_{2}$
,,,,,Milameline,C$_{8}$H$_{14}$N$_{2}$O
,,,,,Polyethylene glycol,C$_{2n}$H$_{4n+2}$O$_{n+1}$
156-158,,,,,Sudan II,C$_{29}$H$_{24}$N$_{6}$
,,,,195.26,DESOXY,C$_{11}$H$_{17}$NO$_{2}$
,,,,,Bemiparin sodium,C$_{8}$H$_{9}$NO$_{2}$
-96.86,,74.8,7.6,72.11,Butyraldehyde,C$_{4}$H$_{8}$O
,,,,,Granulocyte macrophage colony-stimulating factor,
,,,,,Azithromycin,C$_{38}$H$_{72}$N$_{2}$O$_{12}$
,,,,,Hexamidine,C$_{20}$H$_{26}$N$_{4}$O$_{2}$
,,,,,Foravirumab,C$_{6400}$H$_{9914}$N$_{1718}$O$_{1998}$S$_{44}$
,,,,,Ceforanide,C$_{20}$H$_{21}$N$_{7}$O$_{6}$S$_{2}$
,,,,,Hydroflumethiazide,C$_{8}$H$_{8}$F$_{3}$N$_{3}$O$_{4}$S$_{2}$
,,,,,Metamizole,C$_{13}$H$_{17}$N$_{3}$O$_{4}$S
,,,,,AM-1221,C$_{27}$H$_{27}$N$_{3}$O$_{3}$
137,,380,,657.461,Diarsenic tetraiodide,As$_{2}$I$_{4}$
,,,,,SR9009,C$_{20}$H$_{24}$ClN$_{3}$O$_{4}$S
-130,0.9598,59.4,0.026,88.5365,Chloroprene,C$_{4}$H$_{5}$Cl
,,,,,Equilenin,C$_{18}$H$_{18}$O$_{2}$
,,,,,SB-612 111,
53-54,,174,,,Thiobenzophenone,C$_{13}$H$_{10}$S
,,39,,,Dinitromethane,CH$_{2}$N$_{2}$O$_{4}$
,,,,,Candesartan,C$_{24}$H$_{20}$N$_{6}$O$_{3}$
194,,,,353.925,Cyclopentadienyliron dicarbonyl dimer,C$_{14}$H$_{10}$Fe$_{2}$O$_{4}$
,,,,,Aspirin,C$_{9}$H$_{8}$O$_{4}$
,,,,,Spirapril,C$_{22}$H$_{30}$N$_{2}$O$_{5}$S$_{2}$
,,,,,Alvimopan,C$_{25}$H$_{32}$N$_{2}$O$_{4}$
275,,,,229.3,Ergothioneine,C$_{9}$H$_{15}$N$_{3}$O$_{2}$S
,,,,,CTEP,C$_{19}$H$_{13}$ClF$_{3}$N$_{3}$O
,,,,254.96,Sodium polonide,Na$_{2}$Po
129.13,,208,soluble in water,104.148,Neopentyl glycol,C$_{5}$H$_{12}$O$_{2}$
172-175,,,,,Abietic acid,C$_{20}$H$_{30}$O$_{2}$
,,,,,Dichlorvos,C$_{4}$H$_{7}$Cl$_{2}$O$_{4}$P
,,,,,Cacodyl,C$_{4}$H$_{12}$As$_{2}$
,,,,,Prosidol,C$_{18}$H$_{27}$NO$_{3}$
,,,,,Demecarium bromide,
,,,,179.262,Methimepip,C$_{10}$H$_{17}$N$_{3}$
,,,,,Melibiulose,C$_{12}$H$_{22}$O$_{11}$
,,,,705.83,Fumonisin B2,C$_{34}$H$_{59}$NO$_{14}$
,,,,286.27,Gastrodin,C$_{13}$H$_{18}$O$_{7}$
128.5,1.22,,,,Antimony(III) acetate,C$_{6}$H$_{9}$O$_{6}$Sb
,,,,,Galanin,C$_{146}$H$_{213}$N$_{43}$O$_{40}$
,,,,109.15,Ammonium thioglycolate,C$_{2}$H$_{7}$NO$_{2}$S
,,,,,Photobiotin,C$_{23}$H$_{35}$N$_{9}$O$_{4}$S
-99,,-39.1,59,154.466,Chloropentafluoroethane,C$_{2}$ClF$_{5}$
718,2.8,1390,1.41,120.921,Rubidium chloride,RbCl
152,,,,,Artemisinin,C$_{15}$H$_{22}$O$_{5}$
111,,118-119,negligible,143.09,Selenium disulfide,SeS$_{2}$
,,,,,Neokuguaglucoside,C$_{42}$H$_{66}$O$_{14}$
116,,,"Insoluble in water,  Very soluble in chloroform and methanol",,Rokitamycin,C$_{42}$H$_{71}$NO$_{14}$
,,140-185,Insoluble,,Phytofluene,C$_{40}$H$_{62}$
,,,,,Mefruside,C$_{13}$H$_{19}$ClN$_{2}$O$_{5}$S$_{2}$
,,,,,Meprotixol,C$_{19}$H$_{23}$NO$_{2}$S
200-202,1.5,,,,Vasicinone,C$_{11}$H$_{10}$N$_{2}$O$_{2}$
,,,,,Methylenedioxybenzylpiperazine,C$_{12}$H$_{16}$N$_{2}$O$_{2}$
,,,,,Vinburnine,C$_{19}$H$_{22}$N$_{2}$O
,,,insoluble,,Chloro(pyridine)cobaloxime,C$_{13}$H$_{19}$ClCoN$_{5}$O$_{4}$
,,,,329.476,Androisoxazole,C$_{21}$H$_{31}$NO$_{2}$
335,1.32,,Soluble,112.08676,Uracil,C$_{4}$H$_{4}$N$_{2}$O$_{2}$
,,,,,Tezosentan,C$_{27}$H$_{27}$N$_{9}$O$_{6}$S
,,,,,Domiphen bromide,
,,,,242.27,Equol,C$_{15}$H$_{14}$O$_{3}$
62,,210,0.0013,,Capsaicin,C$_{18}$H$_{27}$NO$_{3}$
92-96,1.52,345.39,~ 0.1,,Xylitol,C$_{5}$H$_{12}$O$_{5}$
,,,,,EA-3443,C$_{19}$H$_{27}$NO$_{3}$
,,,,486.49,Mycothiol,C$_{17}$H$_{30}$N$_{2}$O$_{12}$S
,,,,,Trimethyldiphenylpropylamine,C$_{18}$H$_{23}$N
,,,,,Forasartan,C$_{23}$H$_{28}$N$_{8}$
,,,,,Enprostil,C$_{23}$H$_{28}$O$_{6}$
219,,462,,,Bismuth tribromide,BiBr$_{3}$
,3.42,,,133.91339,Caesium hydride,CsH
,,,,,Teriparatide,C$_{15}$H$_{21}$N$_{3}$O$_{2}$
,,,,,Reteplase,C$_{1736}$H$_{2671}$N$_{499}$O$_{522}$S$_{22}$
62.5,,170,insoluble,178.24,Diphenylacetylene,C$_{14}$H$_{10}$
234-235,,,,135.18,Homocysteine,C$_{4}$H$_{9}$NO$_{2}$S
,,,,,Arsenide,As$^{3-}$