Name,formula,Property Molar Mass,Property Molar Mass units,Property Melting Point,Property Melting Point units,Property Density,Property Density units,Property Boiling Point,Property Boiling Point units,Property Solubility
Peroxyacetyl nitrate,C$_{2}$H$_{3}$NO$_{5}$,,,,,,,,,1.46x10$^{5}$
Tulipanin,C$_{27}$H$_{31}$ClO$_{16}$,,,,,,,,,
CP-532 903,C$_{18}$H$_{19}$Cl$_{2}$N$_{7}$O$_{3}$,,,,,,,,,
Dibutyl sebacate,C$_{18}$H$_{34}$O$_{4}$,,,-10,$^{\circ}$C,,,344.5,$^{\circ}$C,0.04
Dimethazan,C$_{11}$H$_{17}$N$_{5}$O$_{2}$,,,,,,,,,
Bromic acid,HBrO$_{3}$,128.91,g/mol,,,,,,,
Lead(II) sulfide,PbS,239.30,g/mol,1118,$^{\circ}$C,7.60,g/cm$^{3}$,1281,$^{\circ}$C,
Tolazamide,C$_{14}$H$_{21}$N$_{3}$O$_{3}$S,,,,,,,,,
Cyphostemmin A,C$_{28}$H$_{22}$O$_{6}$,454.47,g/mol,,,,,,,
Budipine,C$_{21}$H$_{27}$N,,,,,,,,,
Heneicosylic acid,C$_{21}$H$_{42}$O$_{2}$,382.32,g/mol,,,,,,,
Octafluorocyclobutane,C$_{4}$F$_{8}$,200.03,g/mol,,,,,-5.8,$^{\circ}$C,0.016
Germanium nitride,Ge$_{3}$N$_{4}$,273.947,g/mol,,,5.25,g/cm$^{3}$,900,$^{\circ}$C,
Clopyralid,C$_{6}$H$_{3}$Cl$_{2}$NO$_{2}$,,,150-152,$^{\circ}$C,,,,,~1000
Iniparib,C$_{7}$H$_{5}$IN$_{2}$O$_{3}$,,,,,,,,,
Ammonium uranyl carbonate,UO$_{2}$CO$_{3}$.2(NH$_{4}$)$_{2}$CO$_{3}$,522.199,g/mol,,,,,,,Insoluble
Hyperoside,C$_{21}$H$_{20}$O$_{12}$,,,,,,,,,
Mercury(II) cyanide,Hg(CN)$_{2}$,252.63,g/mol,320,$^{\circ}$C,3.996,g/cm$^{3}$,,,9.3
Thiophene,C$_{4}$H$_{4}$S,84.14,g/mol,-38,$^{\circ}$C,,,84,$^{\circ}$C,
CPHPC,C$_{16}$H$_{24}$N$_{2}$O$_{6}$,340.37,g/mol,,,,,,,
Methyldibromo glutaronitrile,C$_{6}$H$_{6}$Br$_{2}$N$_{2}$,,,51.2-52.5,$^{\circ}$C,,,212,$^{\circ}$C,
Stercobilin,C$_{33}$H$_{46}$N$_{4}$O$_{6}$,,,,,,,,,
Lawsone,C$_{10}$H$_{6}$O$_{3}$,174.15,g/mol,195-196,$^{\circ}$C,,,,,almost insoluble
Cyclooctadiene rhodium chloride dimer,C$_{16}$H$_{24}$Cl$_{2}$Rh$_{2}$,493.0806,g/mol,243,$^{\circ}$C,1.93,g/cm$^{3}$,,,
Copper benzoate,C$_{14}$H$_{10}$CuO$_{4}$,305.7728,g/mol,,,,,249.3,$^{\circ}$C,
Borane,H$_{3}$B,,,,,,,,,
Aripiprazole,C$_{23}$H$_{27}$Cl$_{2}$N$_{3}$O$_{2}$,,,,,,,,,
Disilane,H$_{6}$Si$_{2}$,,,-132,$^{\circ}$C,,,-14,$^{\circ}$C,
Dapsone,C$_{12}$H$_{12}$N$_{2}$O$_{2}$S,,,,,,,,,
Indocyanine green,C$_{43}$H$_{47}$N$_{2}$NaO$_{6}$S$_{2}$,774.96,g/mol,,,,,,,
Capsazepine,C$_{19}$H$_{21}$ClN$_{2}$O$_{2}$S,376.9,g/mol,,,,,,,
Isocetane,C$_{16}$H$_{34}$,,,,,,,,,
Methylenedioxycyclopropylmethylamphetamine,C$_{14}$H$_{21}$NO$_{2}$,235.325,g/mol,,,,,,,
Polytetrahydrofuran,(C$_{4}$H$_{8}$O)$_{n}$,,,23-28,$^{\circ}$C,0.982,g/cm$^{3}$,,,
Methyl phenylacetate,C$_{9}$H$_{10}$O$_{2}$,,,50,$^{\circ}$C,1.055,g/cm$^{3}$,218,$^{\circ}$C,2070
Methylpyridinium,C$_{6}$H$_{8}$N$^{+}$,94.134,g/mol,,,,,,,
Imiloxan,C$_{14}$H$_{16}$N$_{2}$O$_{2}$,,,,,,,,,
Cholesteryl nonanoate,C$_{36}$H$_{62}$O$_{2}$,,,77-82,$^{\circ}$C,,,,,Insoluble
CZTS,Cu$_{2}$ZnSnS$_{4}$,439.471,g/mol,,,,,,,
Cyclopentadienyl nickel nitrosyl,(C$_{5}$H$_{5}$)NiNO,153.7927,g/mol,,,,,41.5,$^{\circ}$C,
Metaclazepam,C$_{18}$H$_{18}$BrClN$_{2}$O,,,,,,,,,
Tetrazole,CH$_{2}$N$_{4}$,70.05,g/mol,157-158,$^{\circ}$C,,,,,
Light Green SF yellowish,C$_{37}$H$_{37}$N$_{2}$O$_{9}$S$_{3}$+,749.893,g/mol,,,,,,,
Isopropyl myristate,C$_{17}$H$_{34}$O$_{2}$,,,,,0.85,g/cm$^{3}$,167,$^{\circ}$C,
Chromium(III) chloride,CrCl$_{3}$,158.36,g/mol,1152,$^{\circ}$C,2.87,g/cm$^{3}$,1300,$^{\circ}$C,slightly soluble
Diphenoxylate,C$_{30}$H$_{32}$N$_{2}$O$_{2}$,,,,,,,,,
Methylsulfonylmethane,C$_{2}$H$_{6}$O$_{2}$S,,,109,$^{\circ}$C,1.45,g/cm$^{3}$,238,$^{\circ}$C,
Methyl benzoate,C$_{8}$H$_{8}$O$_{2}$,,,-12.5,$^{\circ}$C,1.0837,g/cm$^{3}$,199.6,$^{\circ}$C,
Strontium nitrate,Sr(NO$_{3}$)$_{2}$,211.630,g/mol,570,$^{\circ}$C,2.986,g/cm$^{3}$,645,$^{\circ}$C,anhydrous:   71
Fendiline,C$_{23}$H$_{25}$N,,,,,,,,,
Dodecane,C$_{12}$H$_{26}$,,,,,,,,,
Trimethylsilyl cyclopentadiene,C$_{8}$H$_{14}$Si,,,,,,,138-140,$^{\circ}$C,
L-Glucose,C$_{6}$H$_{12}$O$_{6}$,,,,,1.54,g/cm$^{3}$,,,91
Nepafenac,C$_{15}$H$_{14}$N$_{2}$O$_{2}$,,,,,,,,,
Fluparoxan,C$_{10}$H$_{10}$FNO$_{2}$,,,,,,,,,
Clinofibrate,C$_{28}$H$_{36}$O$_{6}$,,,,,,,,,
Safinamide,C$_{17}$H$_{19}$FN$_{2}$O$_{2}$,,,,,,,,,
Blazein,C$_{29}$H$_{48}$O$_{3}$,,,,,,,,,
Digoxin,C$_{41}$H$_{64}$O$_{14}$,,,249.3,$^{\circ}$C,,,,,0.0648
Lead carbonate,PbCO$_{3}$,267.21,g/mol,315,$^{\circ}$C,6.582,g/cm$^{3}$,,,0.00011
Adenosine diphosphate,C$_{10}$H$_{15}$N$_{5}$O$_{10}$P$_{2}$,427.201,g/mol,,,,,877.7,$^{\circ}$C,
Acetylene,C$_{2}$H$_{2}$,,,-80.8,$^{\circ}$C,,,,,slightly soluble
Ivacaftor,C$_{62}$H$_{78}$Cl$_{2}$N$_{2}$O$_{14}$,,,,,,,,,
Tiamenidine,C$_{8}$H$_{10}$ClN$_{3}$S,,,,,,,,,
Rolofylline,C$_{20}$H$_{28}$N$_{4}$O$_{2}$,,,,,,,,,
Iodotrifluoroethylene,C$_{2}$F$_{3}$I,207.92,g/mol,,,,,30,$^{\circ}$C,
Paraloid B-72,C$_{44}$H$_{62}$N$_{10}$O$_{10}$S$_{2}$,,,,,,,,,
Elbasvir,C$_{49}$H$_{55}$N$_{9}$O$_{7}$,,,,,,,,,
Etilefrine,C$_{10}$H$_{15}$NO$_{2}$,,,,,,,,,
Nargenicin,C$_{28}$H$_{37}$NO$_{8}$,,,,,,,,,
Tunicamycin,C$_{39}$H$_{64}$N$_{4}$O$_{16}$,,,,,,,,,
Sertindole,C$_{24}$H$_{26}$ClFN$_{4}$O,,,,,,,,,
Latrepirdine,C$_{21}$H$_{25}$N$_{3}$,,,,,,,,,
Phosphatidylinositol 4 5-bisphosphate,C$_{47}$H$_{80}$O$_{19}$P$_{3}$,1042.05,g/mol,,,,,,,
Fluorometholone,C$_{22}$H$_{29}$FO$_{4}$,,,,,,,,,
Perfluorobutane,C$_{4}$F$_{10}$,,,-128,$^{\circ}$C,,,-1.7,$^{\circ}$C,1.5
INH1,C$_{18}$H$_{16}$N$_{2}$OS,,,,,1.2$\pm$0.1,g/cm$^{3}$,,,
SB-431542,C$_{22}$H$_{16}$N$_{4}$O$_{3}$,,,,,,,,,
Aptiganel,C$_{20}$H$_{21}$N$_{3}$,,,,,,,,,
Bromoethane,C$_{2}$H$_{5}$Br,,,,,,,,,1.067
Tetraborane,B$_{4}$H$_{10}$,53.32,g/mol,-120.8,$^{\circ}$C,,,18,$^{\circ}$C,
Scandium(III) sulfide,Sc$_{2}$S$_{3}$,186.11,g/mol,1775,$^{\circ}$C,,,,,
CPhos,C$_{28}$H$_{41}$N$_{2}$P,,,111-113,$^{\circ}$C,,,,,organic solvents
Cabergoline,C$_{26}$H$_{37}$N$_{5}$O$_{2}$,,,,,,,,,
Risperidone,C$_{23}$H$_{27}$FN$_{4}$O$_{2}$,,,,,,,,,
Norleucine,C$_{6}$H$_{13}$NO$_{2}$,,,301,$^{\circ}$C,,,,,16
Levopropylhexedrine,C$_{10}$H$_{21}$N,,,,,,,,,
Estrone,C$_{18}$H$_{22}$O$_{2}$,,,,,,,,,
Glyceollin III,C$_{20}$H$_{18}$O$_{5}$,338.35,g/mol,,,,,,,
Dihydrothymine,C$_{5}$H$_{8}$N$_{2}$O$_{2}$,,,,,,,,,
PD-128 907,,,,,,,,,,
Yttrium nitride,YN,102.913,g/mol,,,5.60,g/cm$^{3}$,,,soluble
Telmisartan,C$_{33}$H$_{30}$N$_{4}$O$_{2}$,,,,,,,,,
Oenin,"C$_{23}$H$_{25}$O$_{12}^{+}$,C$_{23}$H$_{25}$ClO$_{12}$(chloride)",,,,,,,,,
Sodium sulfide,Na$_{2}$S,78.0452,g/mol,1176,$^{\circ}$C,1.856,g/cm$^{3}$,,,12.4
Ethylbenzene,C$_{8}$H$_{10}$,,,-95,$^{\circ}$C,,,136,$^{\circ}$C,0.015
Corilagin,C$_{27}$H$_{22}$O$_{18}$,634.45,g/mol,,,,,,,
Pyrrolidine,C$_{25}$H$_{27}$N$_{2}$NaO$_{6}$S$_{2}$,538.61,g/mol,,,,,,,
Ethyl diazoacetate,C$_{4}$H$_{6}$N$_{2}$O$_{2}$,114.10,g/mol,-22,$^{\circ}$C,1.085,g/cm$^{3}$,140,$^{\circ}$C,
Stamulumab,C$_{6330}$H$_{9748}$N$_{1672}$O$_{1668}$S$_{48}$,,,,,,,,,
Deuterated benzene,C$^{2}_{6}$H$_{6}$,,,,,,,,,
Polymyxin B,,,,,,,,,,
Padimate O,C$_{17}$H$_{27}$NO$_{2}$,,,<25,$^{\circ}$C,0.99,g/cm$^{3}$,362,$^{\circ}$C,
Rubidium hydride,RbH,86.476,g/mol,,,2.60,g/cm$^{3}$,,,reacts
Solvent Violet 13,C$_{21}$H$_{15}$NO$_{3}$,,,142-143,$^{\circ}$C,,,,,
DIOP,C$_{31}$H$_{32}$O$_{2}$P$_{2}$,,,86,$^{\circ}$C,,,,,Insoluble
Corticorelin,C$_{205}$H$_{339}$N$_{59}$O$_{63}$S,,,,,,,,,
MCPB,C$_{11}$H$_{13}$ClO$_{3}$,228.67,g/mol,,,,,,,
Betamethasone,C$_{22}$H$_{29}$FO$_{5}$,,,,,,,,,
Vinyl fluoride,C$_{2}$H$_{3}$F,46.04,g/mol,-160.5,$^{\circ}$C,0.636,g/cm$^{3}$,-72.2,$^{\circ}$C,Slightly soluble
Delapril,C$_{26}$H$_{32}$N$_{2}$O$_{5}$,,,,,,,,,
Carbinoxamine,C$_{16}$H$_{19}$ClN$_{2}$O,,,,,,,,,
Panicudine,C$_{20}$H$_{25}$NO$_{3}$,,,249-250,$^{\circ}$C,,,,,
Methyl cyanoacrylate,C$_{5}$H$_{5}$NO$_{2}$,111.1,g/mol,-40,$^{\circ}$C,,,48-49,$^{\circ}$C,30% (20$^{\circ}$C)
Oroxindin,C$_{22}$H$_{20}$O$_{11}$,460.388,g/mol,,,,,,,
Rosuvastatin,C$_{22}$H$_{28}$FN$_{3}$O$_{6}$S,,,,,,,,,
Rebaudioside A,C$_{44}$H$_{70}$O$_{23}$,967.01,g/mol,,,,,,,
Fursultiamine,C$_{17}$H$_{26}$N$_{4}$O$_{3}$S$_{2}$,,,,,,,,,
PP2 (kinase inhibitor),C$_{15}$H$_{16}$ClN$_{5}$,,,,,,,,,
Clobutinol,C$_{14}$H$_{22}$ClNO,,,,,,,,,
Sodium tetrasulfide,Na$_{2}$S$_{4}$,,,275,$^{\circ}$C,,,,,Soluble in water
Pancuronium bromide,,,,,,,,,,
Epsiprantel,C$_{20}$H$_{26}$N$_{2}$O$_{2}$,,,,,,,,,
AMG-3,C$_{25}$H$_{36}$O$_{2}$S$_{2}$,,,,,,,,,
Pipamazine,C$_{21}$H$_{24}$ClN$_{3}$OS,,,,,,,,,
Neurine,C$_{5}$H$_{13}$NO,,,,,,,,,Soluble
Carprofen,C$_{15}$H$_{12}$ClNO$_{2}$,,,,,,,,,
Bunaftine,C$_{21}$H$_{30}$N$_{2}$O,,,,,,,,,
Undecanal,C$_{11}$H$_{22}$O,,,-2,$^{\circ}$C,,,120,$^{\circ}$C,
Tobramycin,C$_{18}$H$_{37}$N$_{5}$O$_{9}$,,,,,,,,,
Chlorhexidine,C$_{22}$H$_{30}$Cl$_{2}$N$_{10}$,,,,,,,,,0.0008
Pyrimethanil,C$_{12}$H$_{13}$N$_{3}$,,,96.3,$^{\circ}$C,1.15,g/cm$^{3}$,,,
Thiirene,C$_{2}$H$_{2}$S,,,,,,,,,
Succinic anhydride,,,,,,,,,,
Gold(III) fluoride,AuF$_{3}$,253.962,g/mol,,,6.75,g/cm$^{3}$,,,
Urokinase,C$_{1376}$H$_{2145}$N$_{383}$O$_{406}$S$_{18}$,,,,,,,,,
Ruboxistaurin,C$_{28}$H$_{28}$N$_{4}$O$_{3}$,,,,,,,,,
CX157,C$_{14}$H$_{8}$F$_{4}$O$_{4}$S,,,,,,,,,
Phenylbutazone,C$_{19}$H$_{20}$N$_{2}$O$_{2}$,,,,,,,,,
Zinc pyrophosphate,Zn$_{2}$P$_{2}$O$_{7}$,304.72,g/mol,,,3.75,g/cm$^{3}$,,,Insoluble
Dimethyl sulfite,C$_{2}$H$_{6}$O$_{3}$S,,,,,1.29,g/cm$^{3}$,126,$^{\circ}$C,
Phantasmidine,C$_{11}$H$_{11}$ClN$_{2}$O,,,,,1.5$\pm$0.1,g/cm$^{3}$,,,
Barium fluoride,BaF$_{2}$,175.34,g/mol,1368,$^{\circ}$C,4.893,g/cm$^{3}$,2260,$^{\circ}$C,0.16
Cadmium hydride,CdH$_{2}$,,,,,,,,,
Alogliptin,C$_{18}$H$_{21}$N$_{5}$O$_{2}$,,,,,,,,,
Hydroxyethylpromethazine,C19H25N2OS1charge+,,,,,,,,,
Glycolaldehyde,C$_{2}$H$_{4}$O$_{2}$,60.052,g/mol,97,$^{\circ}$C,,,131.3,$^{\circ}$C,
Melissic acid,C$_{30}$H$_{60}$O$_{2}$,452.46,g/mol,,,,,,,
PK-11195,C$_{21}$H$_{21}$ClN$_{2}$O,352.856,g/mol,,,,,,,
Santonic acid,C$_{15}$H$_{20}$O$_{4}$,,,173,$^{\circ}$C,,,,,
PF-184563,C$_{21}$H$_{23}$ClN$_{6}$,,,,,,,,,
RU-24 969,,,,,,,,,,
Coffee furanone,C$_{5}$H$_{8}$O$_{2}$,,,,,1.040,g/cm$^{3}$,139,$^{\circ}$C,
Aurothioglucose,C$_{6}$H$_{11}$AuO$_{5}$S,,,,,,,,,
Tolcapone,C$_{14}$H$_{11}$NO$_{5}$,,,,,,,,,
Ethylenediamine dihydroiodide,C$_{2}$H$_{10}$I$_{2}$N$_{2}$,315.92,g/mol,,,,,,,
Cephaloridine,C$_{19}$H$_{17}$N$_{3}$O$_{4}$S$_{2}$,,,,,,,,,
Felypressin,C$_{46}$H$_{65}$N$_{13}$O$_{11}$S$_{2}$,1040.22,g/mol,,,,,,,
Isopropyl alcohol,C$_{3}$H$_{8}$O,,,-89,$^{\circ}$C,0.786,g/cm$^{3}$,82.6,$^{\circ}$C,miscible
Carbocromen,C$_{20}$H$_{27}$NO$_{5}$,,,,,,,,,
Einsteinium(III) oxide,Es$_{2}$O$_{3}$,554,g/mol,,,,,,,
Siramesine,C$_{30}$H$_{31}$FN$_{2}$O,,,,,,,,,
Flosequinan,C$_{11}$H$_{10}$FNO$_{2}$S,,,,,,,,,
Fluprednisolone,C$_{21}$H$_{27}$FO$_{5}$,378.43,g/mol,,,,,,,
Prednimustine,C$_{35}$H$_{45}$Cl$_{2}$NO$_{6}$,,,,,,,,,
Aceclidine,C$_{9}$H$_{15}$NO$_{2}$,,,,,,,,,
Labdane,C$_{20}$H$_{38}$,,,,,,,,,
Hydroxycarbamide,CH$_{4}$N$_{2}$O$_{2}$,,,,,,,,,
Butizide,C$_{11}$H$_{16}$ClN$_{3}$O$_{4}$S$_{2}$,,,,,,,,,
Homosalate,C$_{16}$H$_{22}$O$_{3}$,262.36,g/mol,<25,$^{\circ}$C,1.045,g/cm$^{3}$,161-165,$^{\circ}$C,
Hexamethylenediamine,C$_{6}$H$_{16}$N$_{2}$,,,39,$^{\circ}$C,,,,,490
Ammonium iron(III) sulfate,FeNH$_{4}$(SO$_{4}$)$_{2}$,482.25,g/mol,39-41,$^{\circ}$C,1.71,g/cm$^{3}$,,,1240
Indanorex,C$_{12}$H$_{17}$NO,,,,,,,,,
Iodosilane,SiH$_{3}$I,158.014,g/mol,,,,,,,
Puromycin,C$_{22}$H$_{29}$N$_{7}$O$_{5}$,,,,,,,,,
Silver chromate,Ag$_{2}$CrO$_{4}$,331.73,g/mol,,,5.625,g/cm$^{3}$,1550,$^{\circ}$C,
Sermorelin,C$_{149}$H$_{246}$N$_{44}$O$_{42}$S,,,,,,,,,
RVX 208,C$_{20}$H$_{22}$N$_{2}$O$_{5}$,,,,,1.3$\pm$0.1,g/cm$^{3}$,,,
Tin(II) sulfide,SnS,150.775,g/mol,882,$^{\circ}$C,5.22,g/cm$^{3}$,about 1230,$^{\circ}$C,Insoluble
Sulfacetamide,C$_{8}$H$_{10}$N$_{2}$O$_{3}$S,,,,,,,,,
Elesclomol,C$_{19}$H$_{20}$N$_{4}$O$_{2}$S$_{2}$,,,,,,,,,
Iron(II III) oxide,Fe$_{3}$O$_{4}$,231.533,g/mol,1538,$^{\circ}$C,5,g/cm$^{3}$,,,
Teriflunomide,C$_{12}$H$_{9}$F$_{3}$N$_{2}$O$_{2}$,,,,,,,,,
PRC200,C$_{20}$H$_{21}$NO,,,,,,,,,
Biricodar,C$_{34}$H$_{41}$N$_{3}$O$_{7}$,,,,,,,,,
N-Arachidonoyl dopamine,C$_{28}$H$_{41}$NO$_{3}$,439.63,g/mol,,,,,,,
Piperonyl butoxide,C$_{19}$H$_{30}$O$_{5}$,338.438,g/mol,,,1.05,g/cm$^{3}$,180,$^{\circ}$C,
Benzoyl peroxide,C$_{14}$H$_{10}$O$_{4}$,,,103-105,$^{\circ}$C,1.334,g/cm$^{3}$,,,poor
Synephrine,C$_{9}$H$_{13}$NO$_{2}$,167.21,g/mol,162-164,$^{\circ}$C,,,,,soluble
Hydroxychloroquine,C$_{18}$H$_{26}$ClN$_{3}$O,,,,,,,,,
Gabapentin,C$_{9}$H$_{17}$NO$_{2}$,,,,,,,,,
Sodium tartrate,C$_{4}$H$_{4}$Na$_{2}$O$_{6}$(anhydrous),194.051,g/mol,,,1.545,g/cm$^{3}$,,,soluble
Rimantadine,C$_{12}$H$_{21}$N,,,,,,,,,
Mesoridazine,C$_{21}$H$_{26}$N$_{2}$OS$_{2}$,,,,,,,,,
Bombesin,C$_{71}$H$_{110}$N$_{24}$O$_{18}$S,,,,,,,,,
Oil Yellow DE,C$_{16}$H$_{14}$N$_{4}$O,,,168,$^{\circ}$C,,,,,
Glutaconic acid,C$_{5}$H$_{6}$O$_{4}$,130.099,g/mol,137,$^{\circ}$C,,,,,
VUF-5681,C$_{11}$H$_{19}$N$_{3}$,,,,,,,,,
Diiron propanedithiolate hexacarbonyl,C$_{9}$H$_{6}$Fe$_{2}$O$_{6}$S$_{2}$,,,,,,,,,
Chromium(III) phosphate,CrPO$_{4}$,146.97,g/mol,1907,$^{\circ}$C,4.236,g/cm$^{3}$,2671,$^{\circ}$C,"insoluble, exothermal blue solution"
Maleylacetic acid,C$_{6}$H$_{6}$O$_{5}$,158.10,g/mol,,,,,,,
Fantofarone,C$_{31}$H$_{38}$N$_{2}$O$_{5}$S,,,,,,,,,
Acadesine,C$_{9}$H$_{14}$N$_{4}$O$_{5}$,,,,,,,,,
Tropatepine,C$_{22}$H$_{23}$NS,,,,,,,,,
Lactose,C$_{12}$H$_{22}$O$_{11}$,342.30,g/mol,202.8,$^{\circ}$C,1.525,g/cm$^{3}$,668.9,$^{\circ}$C,
Butaxamine,C$_{15}$H$_{25}$NO$_{3}$,,,,,,,,,
Malic acid,C$_{4}$H$_{6}$O$_{5}$,,,130,$^{\circ}$C,,,,,558
Ammonium cyanide,NH$_{4}$CN,44.0559,g/mol,,,1.02,g/cm$^{3}$,36,$^{\circ}$C,very soluble
Didesmethylcitalopram,C$_{18}$H$_{17}$FN$_{2}$O,,,,,,,,,
Zinc hydride,ZnH$_{2}$,,,,,,,,,
LY-344 545,,,,,,,,,,
Chlorosulfuric acid,HSO$_{3}$Cl,,,-80,$^{\circ}$C,,,151-152,$^{\circ}$C,
Naphthionic acid,C$_{10}$H$_{9}$NO$_{3}$S,,,,,,,,,soluble
Nomifensine,C$_{16}$H$_{18}$N$_{2}$,,,,,,,,,
Lead(IV) hydroxide,Pb(OH)$_{4}$,275.23,g/mol,,,,,,,
Mannomustine,C$_{10}$H$_{24}$Cl$_{4}$N$_{2}$O$_{4}$,,,,,,,,,
Calcitriol,C$_{27}$H$_{44}$O$_{3}$,,,,,,,,,
Pramiconazole,C$_{35}$H$_{39}$F$_{2}$N$_{7}$O$_{4}$,,,,,,,,,
Phenylacetone,C$_{9}$H$_{10}$O,,,-15,$^{\circ}$C,,,214,$^{\circ}$C,
Aphidicolin,C$_{20}$H$_{34}$O$_{4}$,338.48,g/mol,,,,,,,
Cisapride,C$_{23}$H$_{29}$ClFN$_{3}$O$_{4}$,,,,,,,,,
Starlicide,C$_{7}$H$_{8}$ClN,,,24,$^{\circ}$C,1.167,g/cm$^{3}$,237-238,$^{\circ}$C,Soluble in hot water
Ethyl gallate,C$_{9}$H$_{10}$O$_{5}$,198.17,g/mol,149-153,$^{\circ}$C,,,,,
Diethyl sulfide,C$_{4}$H$_{10}$S,,,-103.8,$^{\circ}$C,0.837,g/cm$^{3}$,92,$^{\circ}$C,insoluble
Tolrestat,C$_{16}$H$_{14}$F$_{3}$NO$_{3}$S,,,,,,,,,
Deoxycytidine,C$_{9}$H$_{13}$N$_{3}$O$_{4}$,,,,,,,,,
Sodium benzoate,NaC$_{7}$H$_{5}$O$_{2}$,,,410,$^{\circ}$C,1.497,g/cm$^{3}$,,,62.69
Emodepside,C$_{60}$H$_{90}$N$_{6}$O$_{14}$,,,,,,,,,
Cocaine,C$_{17}$H$_{21}$NO$_{4}$,,,,,,,,,
Acetochlor,C$_{14}$H$_{20}$ClNO$_{2}$,269.767,g/mol,<0,$^{\circ}$C,,,,,223
Sodium polyaspartate,(C$_{4}$H$_{4}$NNaO$_{3}$)$_{n}$,,,,,,,,,
Trimesic acid,C$_{9}$H$_{6}$O$_{6}$,,,,,,,,,
Spirodecane,C$_{10}$H$_{18}$,138.25,g/mol,,,,,,,
Arbutamine,C$_{18}$H$_{23}$NO$_{4}$,,,,,,,,,
Poly(methacrylic acid),(C$_{4}$H$_{6}$O$_{2}$)$_{n}$,,,,,,,,,Soluble
Trioctylphosphine oxide,C$_{24}$H$_{51}$OP,,,50,$^{\circ}$C,,,411.2,$^{\circ}$C,
Lomefloxacin,C$_{17}$H$_{19}$F$_{2}$N$_{3}$O$_{3}$,,,,,,,,,
Natsudaidain,C$_{21}$H$_{22}$O$_{9}$,418.39,g/mol,,,,,,,
UBP-302,C$_{15}$H$_{15}$N$_{3}$O$_{6}$,333.296,g/mol,,,,,,,
RTI-229,C$_{19}$H$_{25}$IN$_{2}$O,,,,,,,,,
Acid Blue 25,C$_{20}$H$_{13}$N$_{2}$NaO$_{5}$S(Sodiumsalt),416.382,g/mol,,,,,,,
Lophophine,C$_{10}$H$_{13}$NO$_{3}$,,,,,,,,,
Calcium bicarbonate,Ca(HCO$_{3}$)$_{2}$,162.11464,g/mol,,,,,,,16.1
Tributylphosphine,C$_{12}$H$_{27}$P,204.25,g/mol,,,,,,,negligible
Diclofensine,C$_{17}$H$_{17}$Cl$_{2}$NO,,,,,,,,,
Niaprazine,C$_{20}$H$_{25}$FN$_{4}$O,,,,,,,,,
Norbinaltorphimine,C$_{40}$H$_{43}$N$_{3}$O$_{6}$,,,,,,,,,
Nilotinib,C$_{28}$H$_{22}$F$_{3}$N$_{7}$O,,,,,,,,,
Dibenzoylmorphine,C$_{31}$H$_{27}$NO$_{5}$,,,,,,,,,
Coniferin,C$_{16}$H$_{22}$O$_{8}$,342.35,g/mol,186,$^{\circ}$C,,,,,
Ethyl salicylate,C$_{9}$H$_{10}$O$_{3}$,166.17,g/mol,1,$^{\circ}$C,1.131,g/cm$^{3}$,231-234,$^{\circ}$C,
Terbium(III) chloride,TbCl$_{3}$,265.2834,g/mol,558,$^{\circ}$C,,,180-200,$^{\circ}$C,soluble
Avitriptan,C$_{22}$H$_{30}$N$_{6}$O$_{3}$S,,,,,,,,,
Vidarabine phosphate,C$_{10}$H$_{14}$N$_{5}$O$_{7}$P,,,,,,,,,
Nitrobenzene,C$_{6}$H$_{5}$NO$_{2}$,123.06,g/mol,5.7,$^{\circ}$C,1.199,g/cm$^{3}$,210.9,$^{\circ}$C,0.19
Dimedone,C$_{8}$H$_{12}$O$_{2}$,,,147-150,$^{\circ}$C,,,,,
Phenalene,C$_{13}$H$_{10}$,166.22,g/mol,,,,,,,
Ammonium acetate,NH$_{7}$C$_{2}$O$_{2}$,,,110-114,$^{\circ}$C,1.17,g/cm$^{3}$,117.1,$^{\circ}$C,102
Orchinol,C$_{16}$H$_{16}$O$_{3}$,256.29,g/mol,,,,,,,
Gadolinium acetylacetonate,GdC$_{15}$H$_{21}$O$_{6}$,,,,,,,,,
Ciclobendazole,C$_{13}$H$_{13}$N$_{3}$O$_{3}$,,,,,,,,,
Cobalt phosphate,Co$_{3}$O$_{8}$P$_{2}$,,,,,3.81,g/cm$^{3}$,,,insoluble
Lacidipine,C$_{26}$H$_{33}$NO$_{6}$,,,,,,,,,
Carbutamide,C$_{11}$H$_{17}$N$_{3}$O$_{3}$S,,,,,,,,,
Glibenclamide,C$_{23}$H$_{28}$ClN$_{3}$O$_{5}$S,,,,,,,,,
Zenarestat,C$_{17}$H$_{11}$BrClFN$_{2}$O$_{4}$,,,223-224,$^{\circ}$C,,,,,
GR-89696,C$_{19}$H$_{25}$Cl$_{2}$N$_{3}$O$_{3}$,,,,,,,,,
Dichloroacetic acid,C$_{2}$H$_{2}$Cl$_{2}$O$_{2}$,,,9,$^{\circ}$C,1.5634,g/cm$^{3}$,194,$^{\circ}$C,miscible
Levoamphetamine,C$_{9}$NH$_{13}$,,,,,,,,,
Papaverine,C$_{20}$H$_{21}$NO$_{4}$,,,,,,,,,
Norfloxacin,C$_{16}$H$_{18}$FN$_{3}$O$_{3}$,,,,,,,,,
Ruthenium(III) chloride,RuCl$_{3}$.xH$_{2}$O,207.43,g/mol,,,,,,,Soluble
Yellow 2G,C$_{16}$H$_{10}$Na$_{2}$N$_{4}$O$_{7}$S$_{2}$,551.29,g/mol,,,,,,,
Dinoseb,C$_{10}$H$_{12}$N$_{2}$O$_{5}$,240.21,g/mol,,,,,,,
Longifolene,C$_{15}$H$_{24}$,204.36,g/mol,,,0.928,g/cm$^{3}$,254,$^{\circ}$C,
Triclofos,C$_{2}$H$_{4}$Cl$_{3}$O$_{4}$P,,,,,,,,,
Nitroethane,C$_{2}$H$_{5}$NO$_{2}$,75.07,g/mol,-90,$^{\circ}$C,,,112.0-116.0,$^{\circ}$C,slightly soluble (4.6 g/100ml at 20 $^{\circ}$C)
QL (chemical),C$_{11}$H$_{26}$NO$_{2}$P,,,,,,,,,
Tuaminoheptane,C$_{7}$H$_{17}$N,,,,,,,,,
Diffutidin,C$_{17}$H$_{18}$O$_{5}$,302.32,g/mol,,,,,,,
Dichloropane,C$_{15}$H$_{17}$Cl$_{2}$NO$_{2}$,,,,,,,,,
Motexafin gadolinium,,,,,,,,,,
Nociceptin,C$_{79}$H$_{129}$N$_{27}$O$_{22}$,,,,,,,,,
Naringin,C$_{27}$H$_{32}$O$_{14}$,580.54,g/mol,166,$^{\circ}$C,,,,,
Sesamodil,C$_{29}$H$_{32}$N$_{2}$O$_{6}$S,,,,,,,,,
Bucindolol,C$_{22}$H$_{25}$N$_{3}$O$_{2}$,,,,,,,,,
Etymemazine,C$_{20}$H$_{26}$N$_{2}$S,,,,,,,,,
Glycerol 1-phosphate,C$_{3}$H$_{9}$O$_{6}$P,,,,,,,,,
Pramocaine,C$_{17}$H$_{27}$NO$_{3}$,,,,,,,,,
Eribulin,C$_{40}$H$_{59}$NO,,,,,,,,,
Lanthanum carbide,LaC$_{2}$,162.927,g/mol,2360,$^{\circ}$C,,,,,
Callystatin A,C$_{29}$H$_{44}$O$_{4}$,456.6573,g/mol,,,1.022,g/cm$^{3}$,622,$^{\circ}$C,
Potassium hydrogen phthalate,C$_{8}$H$_{5}$KO$_{4}$,,,,,1.636,g/cm$^{3}$,,,80
Gepirone,C$_{19}$H$_{29}$N$_{5}$O$_{2}$,,,,,,,,,
Atomic carbon,C,,,,,,,,,
Titanium disilicide,TiSi$_{2}$,104.038,g/mol,1470,$^{\circ}$C,4.02,g/cm$^{3}$,,,insoluble
Methoxyethane,C$_{3}$H$_{8}$O,,,-113,$^{\circ}$C,,,7.4,$^{\circ}$C,
Silver dichromate,Ag$_{2}$Cr$_{2}$O$_{7}$,431.76,g/mol,,,4.77,g/cm$^{3}$,,,
Methylene green,C$_{16}$H$_{17}$ClN$_{4}$O$_{2}$S,364.85,g/mol,,,,,,,
Uranium hexachloride,UCl$_{6}$,450.745,g/mol,177,$^{\circ}$C,,,75,$^{\circ}$C,
Fletazepam,C$_{17}$H$_{13}$ClF$_{4}$N$_{2}$,,,,,,,,,
Di-tert-butyl dicarbonate,C$_{10}$H$_{18}$O$_{5}$,,,22-24,$^{\circ}$C,,,56-57,$^{\circ}$C,
PF-219 061,,,,,,,,,,
Ortho-DOT,C$_{12}$H$_{19}$NO$_{2}$S,241.350,g/mol,,,,,,,
Magnesium oxalate,MgC$_{2}$O$_{4}$MgC$_{2}$O$_{4}$.2H$_{2}$O(Dihydrate),,,between 420+620,$^{\circ}$C,2.45,g/cm$^{3}$,,,0.038g/100g H$_{2}$O (anhydrous and dihydrate)
Norgestrel,C$_{21}$H$_{28}$O$_{2}$,,,,,,,,,
Quetiapine,C$_{21}$H$_{25}$N$_{3}$O$_{2}$S,,,,,,,,,
Dinoxyline,C$_{15}$H$_{13}$NO$_{3}$,,,,,,,,,
Talaporfin,C$_{38}$H$_{41}$N$_{5}$O$_{9}$,,,,,,,,,
Lyxose,C$_{5}$H$_{10}$O$_{5}$,,,108,$^{\circ}$C,,,,,Soluble in water
Castalin,C$_{27}$H$_{20}$O$_{18}$,632.43,g/mol,,,,,,,
Amitraz,C$_{19}$H$_{23}$N$_{3}$,293.41,g/mol,86-87,$^{\circ}$C,,,,,Insoluble
CI-1017,C$_{18}$H$_{20}$N$_{2}$O$_{6}$,,,,,,,,,
Chavibetol,C$_{10}$H$_{12}$O$_{2}$,,,,,1.06,g/cm$^{3}$,254,$^{\circ}$C,
Cyclobarbital,C$_{12}$H$_{16}$N$_{2}$O$_{3}$,,,,,,,,,
Iduronic acid,C$_{6}$H$_{10}$O$_{7}$,194.139,g/mol,,,,,,,