Name,formula,Property Molar Mass,Property Molar Mass units,Property Melting Point,Property Melting Point units,Property Density,Property Density units,Property Boiling Point,Property Boiling Point units,Property Solubility
Alpha-N N-Trimethyltryptamine,,,,,,,,,,
Aminohippuric acid,,,,,,,,,,
Herniarin,C$_{10}$H$_{8}$O$_{3}$,,,,,,,,,
Butyrate,C$_{4}$H$_{7}$O$^{-}_{2}$,,,,,,,,,
Tert-Butyl alcohol,C$_{4}$H$_{10}$O,,,,,,,,,
N-Acetylmannosamine,C$_{8}$H$_{15}$NO$_{6}$,221.21,g/mol,118-121,$^{\circ}$C,,,,,
Rubidium hydrogen sulfate,RbHSO$_{4}$,,,214,$^{\circ}$C,,,,,
Alpha-Aminoadipic acid,C$_{6}$H$_{11}$NO$_{4}$,161.156,g/mol,196,$^{\circ}$C,,,364,$^{\circ}$C,
AEBSF,C$_{8}$H$_{10}$FNO$_{2}$S.HCl,239.69,g/mol,,,,,,,
Geraniin,C$_{41}$H$_{28}$O$_{27}$,952.64,g/mol,,,,,,,
Amidol,C$_{6}$H$_{8}$N$_{2}$O,124.14,g/mol,78-80,$^{\circ}$C,,,,,
Morphiceptin,C$_{28}$H$_{35}$N$_{5}$O$_{5}$,521.6,g/mol,,,,,,,
Sodium hexametaphosphate,Na$_{6}$P$_{6}$O$_{18}$,,,628,$^{\circ}$C,2.484,g/cm$^{3}$,1500,$^{\circ}$C,soluble
Dexamethasone,C$_{22}$H$_{29}$FO$_{5}$,,,,,,,,,
Disodium phosphate,Na$_{2}$HPO$_{4}$,141.96,g/mol,250,$^{\circ}$C,1.7,g/cm$^{3}$,,,7.7
Imazapic,C$_{14}$H$_{17}$N$_{3}$O$_{3}$,,,,,,,,,
Aniline Yellow,C$_{6}$H$_{5}$NNC$_{6}$H$_{4}$NH$_{2}$,197.24,g/mol,123-126,$^{\circ}$C,,,> 360,$^{\circ}$C,
Ocimene,C$_{10}$H$_{16}$,136.24,g/mol,50,$^{\circ}$C,0.800,g/cm$^{3}$,,,
Potassium iodate,KIO$_{3}$,214.001,g/mol,560,$^{\circ}$C,3.89,g/cm$^{3}$,,,4.74
Strontium carbonate,SrCO$_{3}$,147.63,g/mol,1494,$^{\circ}$C,3.74,g/cm$^{3}$,,,0.0011
Naphthylaminopropane,C$_{13}$H$_{15}$N,,,,,,,,,
Hypoiodous acid,HIO,143.89,g/mol,,,,,,,
Magnesium carbonate,MgCO$_{3}$,,,350,$^{\circ}$C,2.958,g/cm$^{3}$,,,0.0106
Polonium dichloride,PoCl$_{2}$,,,355,$^{\circ}$C,,,,,
Quinestrol,C$_{25}$H$_{32}$O$_{2}$,,,,,,,,,
Lomevactone,C$_{18}$H$_{17}$ClO$_{2}$,,,,,,,,,
Sodium methanethiolate,CH$_{3}$SNa,,,,,,,,,soluble
Thymectacin,C$_{21}$H$_{25}$BrN$_{3}$O$_{9}$P,,,,,,,,,
Lurtotecan,C$_{28}$H$_{30}$N$_{4}$O$_{6}$,518.561,g/mol,,,,,,,
Ptaquiloside,C$_{20}$H$_{30}$O$_{8}$,,,85-89,$^{\circ}$C,,,,,
Guibourtinidol,C$_{15}$H$_{14}$O$_{4}$,258.27,g/mol,,,,,,,
Nonane,C$_{9}$H$_{20}$,,,,,,,,,
Antimony tribromide,SbBr$_{3}$,361.472,g/mol,96.6,$^{\circ}$C,4.35,g/cm$^{3}$,288,$^{\circ}$C,reacts
Trimethylsilyl azide,C$_{3}$H$_{9}$N$_{3}$Si,,,-95,$^{\circ}$C,0.8763,g/cm$^{3}$,52-53,$^{\circ}$C,reacts to form dangerous hydrazoic acid
Ethyl formate,C$_{3}$H$_{6}$O$_{2}$,,,,,0.917,g/cm$^{3}$,54.0,$^{\circ}$C,9% (17.78$^{\circ}$C)
Kallidin,C$_{56}$H$_{85}$N$_{17}$O$_{12}$,1188.38,g/mol,,,,,,,
Amiphenazole,C$_{9}$H$_{9}$N$_{3}$S,,,,,,,,,
Azidamfenicol,C$_{11}$H$_{13}$N$_{5}$O$_{5}$,,,99,$^{\circ}$C,,,,,
Icatibant,C$_{59}$H$_{89}$N$_{19}$O$_{13}$S,,,,,,,,,
Thonzylamine,C$_{16}$H$_{22}$N$_{4}$O,,,,,,,,,
Tetronal,C$_{9}$H$_{20}$O$_{4}$S$_{2}$,,,,,,,,,
Dichlorodifluoromethane,CCl$_{2}$F$_{2}$,,,-157.7,$^{\circ}$C,1.486,g/cm$^{3}$,-29.8,$^{\circ}$C,
Ajmaline,C$_{20}$H$_{26}$N$_{2}$O$_{2}$,,,,,,,,,
Piericidin A,C$_{25}$H$_{37}$NO$_{4}$,415.566,g/mol,,,,,,,
Sertaconazole,C$_{20}$H$_{15}$Cl$_{3}$N$_{2}$OS,,,,,,,,,
Ammonium thiocyanate,NH$_{4}$SCN,76.122,g/mol,149.5,$^{\circ}$C,1.305,g/cm$^{3}$,170,$^{\circ}$C,128
Artemotil,C$_{17}$H$_{28}$O$_{5}$,,,,,,,,,
Dipotassium phosphate,K$_{2}$HPO$_{4}$,174.2,g/mol,,,2.44,g/cm$^{3}$,,,149.25
Corey lactone 4-phenylbenzoate,,,,,,,,,,
Dioxaphetyl butyrate,,,,,,,,,,
Gallium(II) sulfide,GaS$^{.}$,,,965,$^{\circ}$C,,,,,
Sarafloxacin,C$_{20}$H$_{17}$F$_{2}$N$_{3}$O$_{3}$,,,,,,,,,
Fluorotriiodomethane,CFI$_{3}$,,,,,,,,,
Isoprenol,C$_{5}$H$_{10}$O,86.132,g/mol,,,0.853,g/cm$^{3}$,130-132,$^{\circ}$C,
TCPO,C$_{14}$H$_{4}$Cl$_{6}$O$_{4}$,,,188-192,$^{\circ}$C,1.698,g/cm$^{3}$,500.9,$^{\circ}$C,0.01962
Etilamfetamine,C$_{11}$H$_{17}$N,,,,,,,,,
Carbimazole,C$_{7}$H$_{10}$N$_{2}$O$_{2}$S,,,,,,,,,
Phenprocoumon,C$_{18}$H$_{16}$O$_{3}$,,,,,,,,,
N-Methyltryptamine,C$_{11}$H$_{14}$N$_{2}$,,,87,$^{\circ}$C,,,,,
Niobium(V) fluoride,NbF$_{5}$,187.898,g/mol,72-73,$^{\circ}$C,3.293,g/cm$^{3}$,236,$^{\circ}$C,reacts
Polonium monoxide,PoO,224.98,g/mol,,,,,,,
Isoamyl alcohol,C$_{5}$H$_{12}$O,88.148,g/mol,-117.2,$^{\circ}$C,,,131.1,$^{\circ}$C,"slightly soluble, 28"
CR gas,C$_{13}$H$_{9}$NO,195.22,g/mol,73,$^{\circ}$C,1.160$\pm$0.10,g/cm$^{3}$,,,
Pramipexole,C$_{10}$H$_{17}$N$_{3}$S,,,,,,,,,
Bapineuzumab,C$_{6466}$H$_{10018}$N$_{1734}$O$_{2026}$S$_{44}$,,,,,,,,,
Trolamine salicylate,C$_{13}$H$_{21}$NO$_{6}$,287.31,g/mol,,,,,,,
Kappadione,C$_{11}$H$_{8}$Na$_{4}$O$_{8}$P$_{2}$,,,,,,,,,
Trans-1 2-Diaminocyclohexane,C$_{6}$H$_{14}$N$_{2}$,,,14-15,$^{\circ}$C,0.951,g/cm$^{3}$,79-81,$^{\circ}$C,
Cannabigerol,C$_{21}$H$_{32}$O$_{2}$,,,,,,,,,
Quisinostat,C$_{21}$H$_{26}$N$_{6}$O$_{2}$,,,,,,,,,
Osmium(IV) chloride,OsCl$_{4}$,332.041,g/mol,,,4.38,g/cm$^{3}$,,,reacts with water
Monosodium glutamate,C$_{5}$H$_{8}$NO$_{4}$Na,169.111,g/mol,232,$^{\circ}$C,,,,,74
Calcium tartrate,CaC$_{4}$H$_{4}$O$_{6}$,190.16484,g/mol,tetrahydrate decomposes at 160,$^{\circ}$C,1.817,g/cm$^{3}$,,,0.037
Ibuprofen,C$_{13}$H$_{18}$O$_{2}$,,,75,$^{\circ}$C,,,157,$^{\circ}$C,
Sodium stibogluconate,,,,,,,,,,
Benzal chloride,C$_{7}$H$_{6}$Cl$_{2}$,161.03,g/mol,-17--15,$^{\circ}$C,,,205,$^{\circ}$C,0.25
Pristane,C$_{19}$H$_{40}$,,,,,,,296,$^{\circ}$C,
Pindone,C$_{14}$H$_{14}$O$_{3}$,230.26,g/mol,110,$^{\circ}$C,,,,,0.002% (25$^{\circ}$C)
Etonogestrel,C$_{22}$H$_{28}$O$_{2}$,,,,,,,,,
JWH-251,C$_{22}$H$_{25}$NO,319.440,g/mol,,,,,,,
Ciglitazone,C$_{18}$H$_{23}$NO$_{3}$S,,,,,,,,,
Biopterin,C$_{9}$H$_{11}$N$_{5}$O$_{3}$,237.216,g/mol,,,,,,,
Naphthalene,C$_{10}$H$_{8}$,,,78.2,$^{\circ}$C,1.145,g/cm$^{3}$,217.97,$^{\circ}$C,19
Camfetamine,C$_{14}$H$_{19}$N,,,,,,,,,
Oleocanthal,C$_{17}$H$_{20}$O$_{5}$,304.34,g/mol,,,,,,,
Indium arsenide,InAs,189.740,g/mol,942,$^{\circ}$C,5.67,g/cm$^{3}$,,,
Methyllithium,CH$_{3}$Li,,,,,,,,,
Fosfluconazole,C$_{13}$H$_{13}$F$_{2}$N$_{6}$O$_{4}$P,,,,,,,,,
Piclozotan,C$_{23}$H$_{24}$ClN$_{3}$O$_{2}$,,,,,,,,,
Rutin,C$_{27}$H$_{30}$O$_{16}$,,,242,$^{\circ}$C,,,,,
Acefurtiamine,C$_{21}$H$_{24}$N$_{4}$O$_{7}$S,,,,,,,,,
Piperonal,C$_{8}$H$_{6}$O$_{3}$,,,37,$^{\circ}$C,1.337,g/cm$^{3}$,263,$^{\circ}$C,Soluble in 500
Pivoxazepam,C$_{20}$H$_{19}$ClN$_{2}$O$_{3}$,,,,,,,,,
Triuranium octoxide,U$_{3}$O$_{8}$,842.1,g/mol,1150,$^{\circ}$C,,,,,
Butyric acid,C$_{4}$H$_{8}$O$_{2}$,,,-5.1,$^{\circ}$C,1.135,g/cm$^{3}$,163.75,$^{\circ}$C,Miscible
Hydrobromic acid,HBr,,,-11,$^{\circ}$C,1.49,g/cm$^{3}$,122,$^{\circ}$C,221
Ioxaglic acid,,,,,,,,,,
Picloram,C$_{6}$H$_{3}$Cl$_{3}$N$_{2}$O$_{2}$,,,218.5,$^{\circ}$C,,,,,0.04% (20$^{\circ}$C)
Iprocrolol,C$_{18}$H$_{23}$NO$_{6}$,,,,,,,,,
Dihydroquinine,C$_{20}$H$_{26}$N$_{2}$O$_{2}$,,,173-175,$^{\circ}$C,,,,,
RU-58841,C$_{17}$H$_{18}$F$_{3}$N$_{3}$O$_{3}$,,,,,,,,,
Tetra-tert-butylethylene,C$_{18}$H$_{36}$,,,,,,,,,
Uranium diselenide,USe$_{2}$,395.948,g/mol,,,,,,,
Lithol Rubine BK,C$_{18}$H$_{12}$CaN$_{2}$O$_{6}$S,424.44,g/mol,,,,,,,"slightly soluble in hot water, insoluble in cold water and ethanol"
Batanopride,C$_{17}$H$_{26}$ClN$_{3}$O$_{3}$,,,,,,,,,
Selegiline,C$_{13}$H$_{17}$N,,,,,,,,,
Calcium hydride,CaH$_{2}$,42.094,g/mol,816,$^{\circ}$C,,,,,reacts violently
Monobenzone,C$_{13}$H$_{12}$O$_{2}$,,,,,,,,,
Proxibarbital,C$_{10}$H$_{14}$N$_{2}$O$_{4}$,,,,,,,,,
Glycin,C$_{8}$H$_{9}$NO$_{3}$,167.16,g/mol,244,$^{\circ}$C,,,446.3,$^{\circ}$C,
Cholesteryl oleyl carbonate,C$_{46}$H$_{80}$O$_{3}$,681.13,g/mol,,,,,,,
Sapotalin,C$_{13}$H$_{14}$,,,,,0.987,g/cm$^{3}$,,,
Potassium ascorbate,C$_{6}$H$_{7}$KO$_{6}$,,,,,,,,,980
Oxametacin,C$_{19}$H$_{17}$ClN$_{2}$O$_{4}$,,,,,,,,,
Biliverdin,C$_{33}$H$_{34}$N$_{4}$O$_{6}$,,,> 300,$^{\circ}$C,,,,,
Deoxyribose,C$_{5}$H$_{10}$O$_{4}$,,,91,$^{\circ}$C,,,,,Very soluble
Canrenone,C$_{22}$H$_{28}$O$_{3}$,,,,,,,,,
Telapristone,C$_{31}$H$_{39}$NO$_{5}$,,,,,,,,,
Terpineol,C$_{10}$H$_{18}$O,,,18,$^{\circ}$C,0.9338,g/cm$^{3}$,219,$^{\circ}$C,
Vinpocetine,C$_{22}$H$_{26}$N$_{2}$O$_{2}$,,,,,,,,,
Robinetinidin,C$_{15}$H$_{11}$ClO$_{6}$(C$_{15}$H$_{11}$O$^{+}_{6}$Cl$^{-}$),322.69,g/mol,,,,,,,
L-745 870,,,,,,,,,,
Oxmetidine,C$_{19}$H$_{21}$N$_{5}$O$_{3}$S,,,,,,,,,
Idose,C$_{6}$H$_{12}$O$_{6}$,,,,,,,,,
Calcium iodate,Ca(IO$_{3}$)$_{2}$,389.88,g/mol,540,$^{\circ}$C,4.519,g/cm$^{3}$,,,0.09
Tropisetron,C$_{17}$H$_{20}$N$_{2}$O$_{2}$,,,,,,,,,
Sulfolene,C$_{4}$H$_{6}$SO$_{2}$,,,65-66,$^{\circ}$C,,,,,
Azaprocin,C$_{18}$H$_{24}$N$_{2}$O,,,170,$^{\circ}$C,,,,,
Acevaltrate,C$_{24}$H$_{32}$O$_{10}$,,,80-81,$^{\circ}$C,,,,,
Rhaponticin,C$_{21}$H$_{24}$O$_{9}$,420.39,g/mol,,,,,,,
Pavine (molecule),C$_{20}$H$_{23}$NO$_{4}$,341.40,g/mol,,,,,,,
A-366 833,,,,,,,,,,
Pivampicillin,C$_{22}$H$_{29}$N$_{3}$O$_{6}$S,,,,,,,,,
BHFF,C$_{17}$H$_{21}$F$_{3}$O$_{3}$,,,,,,,,,
Lynestrenol,C$_{20}$H$_{28}$O,,,,,,,,,
Pyrovalerone,C$_{16}$H$_{23}$NO,,,,,,,,,
Salicylaldoxime,C$_{7}$H$_{7}$NO$_{2}$,,,59,$^{\circ}$C,,,,,25
Pyrrole,C$_{4}$H$_{5}$N,,,-23,$^{\circ}$C,,,129,$^{\circ}$C,
Neuropeptide Y,,,,,,,,,,
Benexate,C$_{23}$H$_{27}$N$_{3}$O$_{4}$,,,,,,,,,
Org 20599,C$_{25}$H$_{40}$ClNO$_{3}$,438.04,g/mol,,,,,,,
Perfluoro-1 3-dimethylcyclohexane,C$_{8}$F$_{16}$,,,-70,$^{\circ}$C,,,102,$^{\circ}$C,10
Calcium silicate,Ca$_{2}$SiO$_{4}$,,,1540,$^{\circ}$C,2.9,g/cm$^{3}$,,,0.01%  (20$^{\circ}$C)
Gliquidone,C$_{27}$H$_{33}$N$_{3}$O$_{6}$S,,,,,,,,,
Lanthanum(III) chloride,LaCl$_{3}$,245.26,g/mol,858,$^{\circ}$C,3.84,g/cm$^{3}$,1000,$^{\circ}$C,very soluble
Diisoheptyl phthalate,C$_{22}$H$_{34}$O$_{4}$,,,,,0.99,g/cm$^{3}$,,,
Hypotaurine,C$_{2}$H$_{7}$NO$_{2}$S,109.15,g/mol,,,,,,,
Decanal,C$_{10}$H$_{20}$O,,,,,,,207-209,$^{\circ}$C,
Cyanophos,C$_{9}$H$_{10}$NO$_{3}$PS,,,,,0.932,g/cm$^{3}$,,,
Fluticasone,C$_{22}$H$_{27}$F$_{3}$O$_{4}$S,,,,,,,,,
Vanadium(III) chloride,VCl$_{3}$,157.30,g/mol,,,3.0,g/cm$^{3}$,,,soluble
Tritoqualine,C$_{26}$H$_{32}$N$_{2}$O$_{8}$,,,,,,,,,
Thiophenol,C$_{6}$H$_{6}$S,110.19,g/mol,-15,$^{\circ}$C,,,169,$^{\circ}$C,"0.08% in water, 25$^{\circ}$C"
Figitumumab,C$_{6462}$H$_{9948}$N$_{1736}$O$_{2020}$S$_{54}$,,,,,,,,,
Manganese dioxide,MnO$_{2}$,86.9368,g/mol,535,$^{\circ}$C,5.026,g/cm$^{3}$,,,insoluble
Trehalose,C$_{12}$H$_{22}$O$_{11}$(anhydride),342.296,g/mol,203,$^{\circ}$C,,,,,68.9
Para-tert-Butylbenzoic acid,C$_{11}$H$_{14}$O$_{2}$,,,168.5-169.0,$^{\circ}$C,,,,,
Baicalin,C$_{21}$H$_{18}$O,,,,,,,,,
Natamycin,C$_{33}$H$_{47}$NO$_{13}$,665.725,g/mol,,,,,,,0.39
Vineridine,C$_{20}$H$_{26}$N$_{2}$O$_{2}$,,,,,,,,,
Calcium glucoheptonate,,,,,,,,,,
Tantalum(III) aluminide,TaAl$_{3}$,261.893,g/mol,1400,$^{\circ}$C,,,,,insoluble
Oxalic acid,C$_{2}$H$_{2}$O$_{4}$,,,102,$^{\circ}$C,,,,,143
Phosphohydroxypyruvic acid,C$_{3}$H$_{5}$O$_{7}$P,184.041,g/mol,,,,,,,
Thallium azide,TlN$_{3}$,,,,,,,,,insoluble
Sodium aurothiomalate,,,,,,,,,,
Paint thinner,AgCNO,,,,,,,,,not soluble
Wikipedia:WikiProject Medicine/Translation task force/RTT/Simple metoprolol,,,,,,,,,,
Ambenonium chloride,,,,,,,,,,
Fludrocortisone,C$_{21}$H$_{29}$FO$_{5}$,,,,,,,,,
Cinaciguat,C$_{36}$H$_{39}$NO$_{5}$,,,,,,,,,
Tasimelteon,C$_{15}$H$_{19}$NO$_{2}$,,,,,,,,,
Talampanel,C$_{19}$H$_{19}$N$_{3}$O$_{3}$,,,,,,,,,
Methoprene,C$_{19}$H$_{34}$O$_{3}$,310.48,g/mol,,,,,100,$^{\circ}$C,
Bromochlorofluoroiodomethane,CIBrClF,,,,,,,,,
Cyclomethycaine,C$_{22}$H$_{33}$NO$_{3}$,,,,,,,,,
Disulfur decafluoride,S$_{2}$F$_{10}$,254.1,g/mol,-53,$^{\circ}$C,2.08,g/cm$^{3}$,30.1,$^{\circ}$C,
Octreotide,C$_{49}$H$_{66}$N$_{10}$O$_{10}$S$_{2}$,,,,,,,,,
Eseroline,C$_{13}$H$_{18}$N$_{2}$O,,,,,,,,,
Boron suboxide,B$_{6}$O,80.865,g/mol,2000,$^{\circ}$C,2.56,g/cm$^{3}$,,,
Sorbic acid,C$_{6}$H$_{8}$O$_{2}$,,,135,$^{\circ}$C,,,228,$^{\circ}$C,
Thiocyanic acid,CHNS,,,5,$^{\circ}$C,2.04,g/cm$^{3}$,,,Miscible
Antimony pentachloride,SbCl$_{5}$,,,2.8,$^{\circ}$C,2.336,g/cm$^{3}$,140,$^{\circ}$C,reacts
Pardoprunox,C$_{12}$H$_{15}$N$_{3}$O$_{2}$,,,,,,,,,
Polysorbate 80,C$_{64}$H$_{124}$O$_{26}$,1310,g/mol,,,,,,,
Plutonium hexafluoride,PuF$_{6}$,,,52,$^{\circ}$C,,,62,$^{\circ}$C,
Crizotinib,C$_{21}$H$_{22}$Cl$_{2}$FN$_{5}$O,,,,,,,,,
Stearic acid,C$_{18}$H$_{36}$O$_{2}$,,,69.3,$^{\circ}$C,0.9408,g/cm$^{3}$,361,$^{\circ}$C,0.003
Pigment Yellow 81,C$_{36}$H$_{32}$Cl$_{4}$N$_{6}$O$_{4}$,,,,,,,,,
Potassium hexacyanochromate(III),C$_{6}$CrK$_{3}$N$_{6}$,,,,,,,,,
ADX-47273,C$_{20}$H$_{17}$F$_{2}$N$_{3}$O$_{2}$,,,,,,,,,
Butylparaben,C$_{11}$H$_{14}$O$_{3}$,,,68,$^{\circ}$C,,,,,Slightly soluble
Zingiberene,C$_{15}$H$_{24}$,,,,,,,134-135,$^{\circ}$C,
Disodium tetracarbonylferrate,C$_{4}$FeNa$_{2}$O$_{4}$,,,,,,,,,Decomposes
Gluconasturtiin,C$_{15}$H$_{21}$NO$_{9}$S$_{2}$,423.461,g/mol,,,,,,,
CX-546,C$_{14}$H$_{17}$NO$_{3}$,,,,,,,,,
Esmolol,C$_{16}$H$_{25}$NO$_{4}$,,,,,,,,,
Suriclone,C$_{20}$H$_{20}$ClN$_{5}$O$_{3}$S$_{2}$,,,,,,,,,
Interferon alfacon-1,,,,,,,,,,
Zinc protoporphyrin,C$_{34}$H$_{32}$N$_{4}$O$_{4}$Zn,626.032,g/mol,,,,,,,
Cycloheptatriene,C$_{7}$H$_{8}$,,,-80,$^{\circ}$C,,,116,$^{\circ}$C,Insoluble in water
Benzathine,C$_{16}$H$_{20}$N$_{2}$,240.343,g/mol,,,,,,,
LY-235 959,,,,,,,,,,
Acid orange 7,C$_{16}$H$_{11}$N$_{2}$NaO$_{4}$S(sodiumsalt),350.32,g/mol,,,,,,,
Tetrakis (methylammonium) hexachloroferrate (III) chloride,(CH$_{6}$N)$_{4}$(FeCl$_{6}$)Cl,432.3,g/mol,155,$^{\circ}$C,,,,,
URB602,C$_{19}$H$_{21}$NO$_{2}$,,,,,,,,,
Dihydroquinidine,C$_{20}$H$_{26}$N$_{2}$O$_{2}$,326.4,g/mol,169-172,$^{\circ}$C,,,,,
HA-966,C$_{4}$H$_{8}$N$_{2}$O$_{2}$,,,,,,,,,
Hypofluorous acid,HOF,,,-117,$^{\circ}$C,,,< 0,$^{\circ}$C,
Estragole,C$_{10}$H$_{12}$O,148.20,g/mol,,,0.946,g/cm$^{3}$,216,$^{\circ}$C,
Phencyclidine,C$_{17}$H$_{25}$N,,,,,,,,,
CGP-37849,C$_{6}$H$_{12}$NO$_{5}$P,,,,,,,,,
Resazurin,C$_{12}$H$_{7}$NO$_{4}$,,,,,,,,,soluble
Nisin,C$_{143}$H$_{230}$N$_{42}$O$_{37}$S$_{7}$,3354.07,g/mol,,,,,2966,$^{\circ}$C,
Uranium tetrabromide,UBr$_{4}$,557.645,g/mol,,,,,,,
Vanadium(III) fluoride,VF$_{3}$,,,1395,$^{\circ}$C,3.363,g/cm$^{3}$,,,Insoluble
Procyanidin B8,C$_{30}$H$_{26}$O$_{12}$,578.52,g/mol,,,,,,,
Cefepime,C$_{19}$H$_{24}$N$_{6}$O$_{5}$S$_{2}$,,,,,,,,,
Spirotryprostatin B,C$_{21}$H$_{21}$N$_{3}$O$_{3}$,363.41,g/mol,,,,,,,
Siltuximab,C$_{6450}$H$_{9932}$N$_{1688}$O$_{2016}$S$_{50}$,,,,,,,,,
Oritavancin,C$_{86}$H$_{97}$Cl$_{3}$N$_{10}$O$_{26}$,,,,,,,,,
Endosulfan,C$_{9}$H$_{6}$Cl$_{6}$O$_{3}$S,,,70,$^{\circ}$C,1.745,g/cm$^{3}$,,,
Flesinoxan,C$_{22}$H$_{26}$FN$_{3}$O$_{4}$,,,,,,,,,
Taltirelin,C$_{17}$H$_{31}$N$_{7}$O$_{9}$,,,,,,,,,
Octyl gallate,C$_{15}$H$_{22}$O$_{5}$,,,98,$^{\circ}$C,,,,,
Rozrolimupab,C$_{12}$H$_{9}$ClFN$_{5}$,,,,,,,,,
Oxymorphazone,C$_{17}$H$_{21}$N$_{3}$O$_{3}$,,,,,,,,,
Congo red,C$_{32}$H$_{22}$N$_{6}$Na$_{2}$O$_{6}$S$_{2}$,,,,,,,,,
Vinyl alcohol,C$_{2}$H$_{4}$O,44.053,g/mol,,,,,,,
Laudexium metilsulfate,,,,,,,,,,
Mebanazine,C$_{8}$H$_{12}$N$_{2}$,,,,,,,,,
Telcagepant,C$_{26}$H$_{27}$F$_{5}$N$_{6}$O$_{3}$,,,,,,,,,
Sesamolin,C$_{20}$H$_{18}$O$_{7}$,370.35,g/mol,,,,,,,
Silicon dioxide,SiO$_{2}$,60.08,g/mol,1600,$^{\circ}$C,,,2230,$^{\circ}$C,
Azorubine,C$_{20}$H$_{12}$N$_{2}$Na$_{2}$O$_{7}$S$_{2}$,,,,,,,,,Soluble (120g/l)
Menthoxypropanediol,C$_{13}$H$_{26}$O$_{3}$,,,,,,,,,
Metaxalone,C$_{12}$H$_{15}$NO$_{3}$,,,,,,,,,
Ammonium sulfate,(NH$_{4}$)$_{2}$SO$_{4}$,132.14,g/mol,235,$^{\circ}$C,1.769,g/cm$^{3}$,,,70.6
Clo$\beta$sone,C$_{22}$H$_{26}$ClFO$_{4}$,,,,,,,,,
Petasis reagent,C$_{12}$H$_{16}$Ti,208.13,g/mol,,,,,,,
Linamarin,C$_{10}$H$_{17}$NO$_{6}$,,,143-144,$^{\circ}$C,,,,,good
Clocortolone,C$_{27}$H$_{36}$ClFO$_{5}$,,,,,,,,,
MPP+,C$_{12}$H$_{12}$N$^{+}$,170.25,g/mol,,,,,,,
Benfluralin,C$_{13}$H$_{16}$F$_{3}$N$_{3}$O$_{4}$,,,65.0,$^{\circ}$C,,,121,$^{\circ}$C,1
Hopeaphenol,C$_{56}$H$_{42}$O$_{12}$,,,,,,,,,
Chlorine pentafluoride,ClF$_{5}$,,,-103,$^{\circ}$C,4.5,g/cm$^{3}$,-13.1,$^{\circ}$C,hydrolyzes
Acetildenafil,C$_{25}$H$_{34}$N$_{6}$O$_{3}$,,,,,,,,,
Didanosine,C$_{10}$H$_{12}$N$_{4}$O$_{3}$,,,,,,,,,
Bromopentacarbonylrhenium(I),Re(CO)$_{5}$Br,406.16,g/mol,,,,,,,
Triflubazam,C$_{17}$H$_{13}$F$_{3}$N$_{2}$O$_{2}$,,,,,,,,,
Vitisin A (stilbenoid),C$_{56}$H$_{42}$O$_{12}$,906.92,g/mol,,,,,,,
Allyl glycidyl ether,C$_{6}$H$_{10}$O$_{2}$,,,,,,,,,14% (20$^{\circ}$C)
Silver chloride,AgCl,,,455,$^{\circ}$C,,,1547,$^{\circ}$C,520
Pazopanib,C$_{21}$H$_{23}$N$_{7}$O$_{2}$S,,,,,,,,,
Fenethylline,C$_{18}$H$_{23}$N$_{5}$O$_{2}$,,,,,,,,,
Olympicene,C$_{19}$H$_{12}$,,,,,1.28,g/cm$^{3}$,511.754,$^{\circ}$C,
Bismuth(III) oxide,Bi$_{2}$O$_{3}$,465.96,g/mol,817,$^{\circ}$C,,,1890,$^{\circ}$C,insoluble
Dipalmitoylphosphatidylcholine,C$_{40}$H$_{80}$NO$_{8}$P,734.039,g/mol,,,,,,,
Isosorbide dinitrate,,,,,,,,,,
Thiazinamium metilsulfate,,,,,,,,,,
Salinomycin,C$_{42}$H$_{70}$O$_{11}$,751.00,g/mol,,,,,,,
Horsfiline,C$_{13}$H$_{16}$N$_{2}$O$_{2}$,,,125-126,$^{\circ}$C,,,,,
Cyanuric acid,C$_{3}$H$_{3}$N$_{3}$O$_{3}$,129.07,g/mol,320-360,$^{\circ}$C,2.5,g/cm$^{3}$,,,0.27
Capromorelin,C$_{28}$H$_{35}$N$_{5}$O$_{4}$,,,,,,,,,
Trans-2-Methyl-2-butenal,C$_{5}$H$_{8}$O,,,-78,$^{\circ}$C,,,116-119,$^{\circ}$C,
Zinc titanate,ZnTiO$_{3}$,161.24,g/mol,,,,,,,Insoluble
Eperezolid,C$_{18}$H$_{23}$FN$_{4}$O$_{5}$,,,,,,,,,
Tetrahydrocortisone,C$_{21}$H$_{32}$O$_{5}$,364.48,g/mol,,,,,,,
Kepone,C$_{10}$Cl$_{10}$O,490.633,g/mol,349,$^{\circ}$C,1.6,g/cm$^{3}$,,,0.27
O6-Benzylguanine,C$_{12}$H$_{11}$N$_{5}$O,,,,,,,,,
Chromone,C$_{9}$H$_{6}$O$_{2}$,,,,,,,,,
Sodium perrhenate,NaReO$_{4}$,273.194,g/mol,414,$^{\circ}$C,5.39,g/cm$^{3}$,,,103.3
Bolenol,C$_{20}$H$_{32}$O,288.47,g/mol,,,,,,,
Butin (molecule),C$_{15}$H$_{12}$O$_{5}$,272.25,g/mol,,,,,,,
Oxypertine,C$_{23}$H$_{29}$N$_{3}$O$_{2}$,,,,,,,,,
Glyoxal-bis(mesitylimine),C$_{20}$H$_{24}$N$_{2}$,,,,,,,,,
Sulfur chloride pentafluoride,SClF$_{5}$,,,-64,$^{\circ}$C,,,-19,$^{\circ}$C,
Acetate,CH$_{3}$CO$^{2-}$,,,,,,,,,
Helium hydride ion,HeH$^{+}$,,,,,,,,,
SCH-442 416,C$_{20}$H$_{19}$N$_{7}$O$_{2}$,,,,,,,,,
Linolein,C$_{57}$H$_{98}$O$_{6}$,879.384,g/mol,,,,,,,
Vanillylmandelic acid,C$_{9}$H$_{10}$O$_{5}$,198.173,g/mol,133,$^{\circ}$C,,,,,
Org 25435,,,,,,,,,,
FGIN-127,C$_{28}$H$_{37}$FN$_{2}$O,,,,,,,,,
Piroctone olamine,C$_{16}$H$_{30}$N$_{2}$O$_{3}$,,,,,,,,,
Danazol,C$_{22}$H$_{27}$NO$_{2}$,,,,,,,,,
Raspberry ketone,C$_{10}$H$_{12}$O$_{2}$,,,82,$^{\circ}$C,,,140,$^{\circ}$C,
Honokiol,C$_{18}$H$_{18}$O$_{2}$,266.334,g/mol,,,,,,,sparingly (25 $^{\circ}$C)
Metolachlor,C$_{15}$H$_{22}$ClNO$_{2}$,,,,,,,100,$^{\circ}$C,530
Boromycin,C$_{45}$H$_{74}$BNO$_{15}$,,,,,,,,,
Orthonitrate,NO$^{3-}_{4}$,,,,,,,,,
Trimethylindium,InC$_{3}$H$_{9}$,,,88,$^{\circ}$C,,,134,$^{\circ}$C,Reacts
Lead(II IV) oxide,Pb$_{3}$O$_{4}$,,,,,,,,,
Tenocyclidine,C$_{15}$H$_{23}$NS,,,,,,,,,
Dimethyl malonate,C$_{5}$H$_{8}$O$_{4}$,,,-62,$^{\circ}$C,,,180-181,$^{\circ}$C,Slightly soluble
Fusidic acid,,,,,,,,,,
Cadazolid,C$_{29}$H$_{29}$F$_{2}$N$_{3}$O$_{8}$,,,,,,,,,
Bismuth subsalicylate,,,,,,,,,,
Pyridinium chlorochromate,C$_{5}$H$_{5}$NHClCrO$_{3}$,215.56,g/mol,,,,,,,
Telluride (chemistry),Te$^{2-}$,,,,,,,,,
ANG1005,C$_{20}$H$_{24}$N$_{2}$OS,,,,,,,,,
Prodine,C$_{16}$H$_{23}$NO$_{2}$,,,,,,,,,
Genistin,C$_{21}$H$_{20}$O$_{10}$,432.37,g/mol,,,,,,,
Leuco-fisetinidin,C$_{15}$H$_{14}$O$_{6}$,290.27,g/mol,,,,,,,
Hexamethylene triperoxide diamine,C$_{6}$H$_{12}$N$_{2}$O$_{6}$,208.17,g/mol,Decomposes at 75,$^{\circ}$C,0.88,g/cm$^{3}$,,,
Vanadium tetrachloride,VCl$_{4}$,192.75,g/mol,-24.5,$^{\circ}$C,,,148,$^{\circ}$C,decomposes
Edoxudine,C$_{11}$H$_{16}$N$_{2}$O$_{5}$,,,,,,,,,
Glycolonitrile,C$_{2}$H$_{3}$NO,,,,,,,,,soluble
Golimumab,C$_{6530}$H$_{10068}$N$_{1752}$O$_{2026}$S$_{44}$,,,,,,,,,
Nitric acid,HNO$_{3}$,,,-42,$^{\circ}$C,,,83,$^{\circ}$C,Completely miscible
G2ZT,C$_{6}$H$_{14}$N$_{22}$,394.324,g/mol,,,,,,,
Latamoxef,C$_{20}$H$_{20}$N$_{6}$O$_{9}$S,,,,,,,,,
Metizoline,C$_{13}$H$_{14}$N$_{2}$S,,,,,,,,,
Mizolastine,C$_{24}$H$_{25}$FN$_{6}$O,,,,,,,,,
WIN 56 098,,,,,,,,,,
Gallane,H$_{3}$Ga,,,,,,,,,hydrolyses
Galnon,C$_{40}$H$_{46}$N$_{4}$O$_{6}$,,,,,,,,,
Hexacene,C$_{26}$H$_{16}$,328.41,g/mol,,,,,,,
Tetrabromomethane,CBr$_{4}$,,,,,,,,,0.024
Poly(N-vinylacetamide),(C$_{4}$H$_{7}$NO)$_{n}$,,,,,,,,,Soluble
Marimastat,C$_{15}$H$_{29}$N$_{3}$O$_{5}$,,,,,,,,,
Pigment red 190,C$_{38}$H$_{22}$N$_{2}$O$_{6}$,602.59,g/mol,,,,,,,
Phloretic acid,C$_{9}$H$_{10}$O$_{3}$,,,,,,,,,