Property Melting Point,Property Density,Property Boiling Point,Property Solubility,Property Molar Mass,Name,formula
,,,,,Pemoline,C$_{9}$H$_{8}$N$_{2}$O$_{2}$
,,,,,JWH-015,C$_{23}$H$_{21}$NO
,,,,,Psychotridine,C$_{55}$H$_{62}$N$_{10}$
,,,,,Tetrahydrogestrinone,C$_{21}$H$_{28}$O$_{2}$
,,,,,Chlorobis(ethylene)rhodium dimer,C$_{8}$H$_{16}$Cl$_{2}$Rh$_{2}$
95,1.1,,Soluble,171.259,Sodium diethyldithiocarbamate,C$_{5}$H$_{10}$NS$_{2}$Na
,,,,,Scheele's Green,AsCuHO$_{3}$
,,,,448.59,Algestone acetophenide,C$_{29}$H$_{36}$O$_{4}$
187-188,1371,240,,179.17,Hippuric acid,C$_{9}$H$_{9}$NO$_{3}$
,,,,,Tenofovir,C$_{9}$H$_{14}$N$_{5}$O$_{4}$P
,,,,,CCK-4,C$_{29}$H$_{35}$N$_{5}$O$_{7}$S
-152,,-82,,61.019,Fluorine azide,FN$_{3}$
,,,,,Talinolol,C$_{20}$H$_{33}$N$_{3}$O$_{3}$
,,,,,Met-enkephalin,C$_{27}$H$_{35}$N$_{5}$SO$_{7}$
,,,,225.284,Macromerine,C$_{12}$H$_{19}$NO$_{3}$
,,,,,QH-II-66,C$_{18}$H$_{14}$N$_{2}$O
,,,,268.26,Techtochrysin,C$_{16}$H$_{12}$O$_{4}$
172-173,,,,221.21,N-Acetylgalactosamine,C$_{8}$H$_{15}$NO$_{6}$
109-111,,,,152.19,Biphenylene,C$_{12}$H$_{8}$
,,,,,Tetrahydrobiopterin,C$_{9}$H$_{15}$N$_{5}$O$_{3}$
,,,,,Bornaprine,C$_{21}$H$_{31}$NO$_{2}$
,4.3,,very slightly soluble,207.9,Iron(III) sulfide,Fe$_{2}$S$_{3}$
,,,,,Mirodenafil,C$_{26}$H$_{37}$N$_{5}$O$_{5}$S
,,,,,Yttrium (90Y) clivatuzumab tetraxetan,
-41.6,,115.2,Miscible,,Pyridine,C$_{5}$H$_{5}$N
114,,,,,Chloroxylenol,C$_{8}$H$_{9}$ClO
,,,,,Hydrocodone,C$_{18}$H$_{21}$NO$_{3}$
,,,,226.27,Flavan-4-ol,C$_{15}$H$_{14}$O$_{2}$
,,,,498.392,Tetrafucol A,C$_{24}$H$_{18}$O$_{12}$
,,,,318.23,Quercetagetin,C$_{15}$H$_{10}$O$_{8}$
,,,,,Alcuronium chloride,
,,,,2653.79,Raspberry ellagitannin,C$_{116}$H$_{76}$O$_{74}$
,,,,61.04,Carbamic acid,CH$_{3}$NO$_{2}$
,,120,4.3,,Fenpropimorph,C$_{20}$H$_{33}$NO
,,,,382.45,Aspidophytine,C$_{22}$H$_{26}$N$_{2}$O$_{4}$
,,,,,Bremazocine,C$_{20}$H$_{29}$NO$_{2}$
,,,,425.6,Jervine,C$_{27}$H$_{39}$NO$_{3}$
400,6.92,,,234.205,Rhenium trioxide,ReO$_{3}$
,,,,,Carboxycyclophosphamide,C$_{7}$H$_{15}$Cl$_{2}$N$_{2}$O$_{4}$P
,,,insoluble,,Bismuth oxychloride,BiOCl
,,,,,Lidocaine,C$_{14}$H$_{22}$N$_{2}$O
,,,,,Taxifolin,C$_{15}$H$_{12}$O$_{7}$
,,,,,Darifenacin,C$_{28}$H$_{30}$N$_{2}$O$_{2}$
,,,,,Gaboxadol,C$_{6}$H$_{8}$N$_{2}$O$_{2}$
,,,,,Mephenesin,C$_{10}$H$_{14}$O$_{3}$
,,,,,Cyclobutyrol,C$_{10}$H$_{18}$O$_{3}$
280,,,insoluble,173.21,Algarot,SbOCl
,,,,,Apixaban,C$_{25}$H$_{25}$N$_{5}$O$_{4}$
,,,,442.37,Epicatechin gallate,C$_{22}$H$_{18}$O$_{10}$
,,,,,Osemozotan,C$_{20}$H$_{23}$NO$_{4}$
-50,,178,Insoluble,,Perfluorotributylamine,C$_{12}$F$_{27}$N
190-200,1.734,,Soluble,,Iron(II) acetate,C$_{4}$H$_{6}$FeO$_{4}$
-0.5,0.863-0.87,203-211.3,0.021,,Octyl acetate,C$_{10}$H$_{20}$O$_{2}$
,,,,,Dexetimide,C$_{23}$H$_{26}$N$_{2}$O$_{2}$
,,,,,Nikethamide,C$_{10}$H$_{14}$N$_{2}$O
,,,,,Isoaminile,C$_{16}$H$_{24}$N$_{2}$
,,,,349.211,IDNNA,C$_{13}$H$_{20}$NO$_{2}$I
,,,,,Moramide intermediate,
,,,,,Prostaglandin E1,
-15,,50,Reacts,349.012,Lead tetrachloride,PbCl$_{4}$
41,1.642,47,reacts to give HNO$_{3}$,108.01,Dinitrogen pentoxide,N$_{2}$O$_{5}$
,,,,,Ro64-6198,C$_{26}$H$_{31}$N$_{3}$O
,,,,,Sulfaphenazole,C$_{15}$H$_{14}$N$_{4}$O$_{2}$S
,,,,,Satraplatin,C$_{10}$H$_{22}$Cl$_{2}$N$_{2}$O$_{4}$Pt
,,,,,Valaciclovir,C$_{13}$H$_{20}$N$_{6}$O$_{4}$
,,,organic solvents,,Kelliphite,C$_{60}$H$_{72}$O$_{6}$P$_{2}$
790,5.57,,,522.25,Gallium(III) telluride,Ga$_{2}$Te$_{3}$
265,1.719,,10,,Dunnite,C$_{6}$H$_{6}$N$_{4}$O$_{7}$
-73,1.46,87.2,1.28,141.4,Trichloroethylene,C$_{2}$HCl$_{3}$
,,,,550.47,Betanin,C$_{24}$H$_{26}$N$_{2}$O$_{13}$
82,2.225,120,146,262.447,Copper(II) perchlorate,Cu(ClO$_{4}$)$_{2}$
,,,,,Tebipenem,C$_{22}$H$_{31}$N$_{3}$O$_{6}$S$_{2}$
,,,,,Inositol nicotinate,
60.8,0.79,244,,,Cyclododecane,C$_{12}$H$_{24}$
,,,,,Phenytoin,C$_{15}$H$_{12}$N$_{2}$O$_{2}$
,,,,,Hycanthone,C$_{20}$H$_{24}$N$_{2}$O$_{2}$S
,,,,,PNU-99 194,
,,,,,Amylopectin,variable
192,,,,,Syringin,C$_{17}$H$_{24}$O$_{9}$
,,,,361.24,Chlorthiophos,C$_{11}$H$_{15}$Cl$_{2}$O$_{3}$PS$_{2}$
,,,,,LP-44,C$_{27}$H$_{37}$N$_{3}$OS
636,,1300,1062,212.81,Caesium bromide,CsBr
128.5,,,,,Periodic acid,H$_{5}$IO$_{6}$(orthoperiodic)HIO$_{4}$(metaperiodic)
,,,,58.07,Acetylenediol,C$_{2}$H$_{2}$O$_{2}$
,,,,,CP-615 003,
,,,,154.25,Rose oxide,C$_{10}$H$_{18}$O
61,,,208,458.28,Sodium aluminium sulfate,NaAl(SO$_{4}$)$_{2}$.12H$_{2}$O
decomposes below 0,,,decomposes,114.14,Thiosulfuric acid,H$_{2}$S$_{2}$O$_{3}$
195.7,,,,658.88,Bisoctrizole,C$_{41}$H$_{50}$N$_{6}$O$_{2}$
,,,,,Clamoxyquine,C$_{17}$H$_{24}$ClN$_{3}$O
,,123-124,Reacts,,Methanesulfonyl fluoride,CH$_{3}$FO$_{2}$S
,,,,,Montelukast,C$_{35}$H$_{36}$ClNO$_{3}$S
,,,,,Rifapentine,C$_{47}$H$_{64}$N$_{4}$O$_{12}$
,,,,,Codoxime,C$_{20}$H$_{24}$N$_{2}$O$_{5}$
,,,,,Novobiocin,C$_{31}$H$_{36}$N$_{2}$O
,,,,,Ioglycamic acid,
,,,,,JD5037,chemical_formulaC27H27Cl2N5O3S
>500,4,,Reacts violently to give RbOH,,Rubidium oxide,Rb$_{2}$O
,,,,,Khellin,C$_{14}$H$_{12}$O$_{5}$
,,,,,Vincoline,C$_{21}$H$_{24}$N$_{2}$O$_{4}$
,,,,,Leflunomide,C$_{12}$H$_{9}$F$_{3}$N$_{2}$O$_{2}$
,,,,,Tenecteplase,C$_{2561}$H$_{3919}$N$_{747}$O$_{781}$S$_{40}$
,,,,,Camostat,C$_{20}$H$_{22}$N$_{4}$O$_{5}$
,,,,,Flor$\beta$ben (18F),C$_{21}$H$_{26}$FNO$_{3}$
129,1.23,300.5,1.3,,Tolidine,C$_{14}$H$_{16}$N$_{2}$
,,,,224.08,Tetrahydroxy-1 4-benzoquinone biscarbonate,C$_{8}$O$_{8}$
43,,205,,155.23,Triacetone amine,C$_{9}$H$_{17}$NO
,,,Soluble in 10% KOH,,Divicine,C$_{4}$H$_{6}$N$_{4}$O$_{2}$
,,,,,Actinium(III) oxide,Ac$_{2}$O$_{3}$
,0.825,142.666,,,Azepane,C$_{6}$H$_{13}$N
,,,,,TAN-67,C$_{23}$H$_{25}$N$_{3}$O
,8.1,,,328.19,Mercury telluride,HgTe
,,,,,Carboquone,C$_{15}$H$_{19}$N$_{3}$O$_{5}$
,,,,395.43,Spirotryprostatin A,C$_{22}$H$_{25}$N$_{3}$O$_{4}$
723,2.11,1310,1.54,,Lithium carbonate,Li$_{2}$CO$_{3}$
144-145,,,,,Benzo(a)fluoranthene,C$_{20}$H$_{12}$
,,,,,Pimeclone,C$_{12}$H$_{21}$NO
,,,,,Tetanus vaccine,
,,,,,Ro 04-6790,
-158.2,,-27.8,4.01,,Chlorotrifluoroethylene,C$_{2}$F$_{3}$Cl
,,,,,Pramlintide,C$_{171}$H$_{269}$N$_{51}$O$_{53}$S$_{2}$
,,,,,Miconazole,C$_{18}$H$_{14}$Cl$_{4}$N$_{2}$O
162,1.63,,1,,Itaconic acid,C$_{5}$H$_{6}$O$_{4}$
,,,,,Mercury(I) hydride,HgH
,,,,,MMDA (drug),
-99,1.837,101,,,Allyl iodide,C$_{3}$H$_{5}$I
,,,,,EAM-2201,C$_{26}$H$_{26}$FNO
,,,,784.54,Granatin A,C$_{34}$H$_{24}$O$_{22}$
1650,,,,235.887,Lithium tantalate,LiTaO$_{3}$
181,,,,,Almitrine,C$_{26}$H$_{29}$F$_{2}$N$_{7}$
,,,,447.2287,Silver behenate,AgC$_{22}$H$_{43}$O$_{2}$
300,1.902,,,,Norbadione A,C$_{35}$H$_{18}$O$_{15}$
,0.95,,,362.08,Didecyldimethylammonium chloride,C$_{22}$H$_{48}$ClN
,,,,,Phenazopyridine,C$_{11}$H$_{11}$N$_{5}$
,,,,704.814,SPANphos,C$_{47}$H$_{46}$O$_{2}$P$_{2}$
,,,,,Polyhydroxyethylmethacrylate,(C$_{6}$H$_{10}$O$_{3}$)$_{n}$
1217,4.46,1400,1.4,96.93,Cobalt(II) fluoride,CoF$_{2}$
,,,,,Anakinra,C$_{759}$H$_{1186}$N$_{208}$O$_{232}$S$_{10}$
,,,sl. in water,176.12,Propane-1 2 3-tricarboxylic acid,C$_{6}$H$_{8}$O$_{6}$
,,,,,Magnesium lactate,
-10,,82,,,Dimethyl telluride,C$_{2}$H$_{6}$Te
,,,,,E-55888,C$_{16}$H$_{23}$N$_{3}$
,,,,394,Barbigerone,C$_{23}$H$_{22}$O$_{6}$
,,,,,Orciprenaline,C$_{11}$H$_{17}$NO$_{3}$
,,,,,Amygdalin,C$_{20}$H$_{27}$NO
,,,,,Allylnorpethidine,C$_{17}$H$_{23}$NO$_{2}$
,,,,,Seproxetine,C$_{16}$H$_{16}$F$_{3}$NO
,,,,,Sabcomeline,C$_{10}$H$_{15}$N$_{3}$O
,1.742,,,,Pigment yellow 139,C$_{16}$H$_{9}$N$_{5}$O$_{6}$
,,,,,Cobamamide,C$_{72}$H$_{100}$CoN$_{18}$O$_{17}$P
661,3.67,1304,158.7,149.89,Sodium iodide,NaI
,,,,,Nifedipine,C$_{17}$H$_{18}$N$_{2}$O$_{6}$
,,,,,Diisopromine,C$_{21}$H$_{29}$N
,,,,,Chlorcyclizine,C$_{18}$H$_{21}$ClN$_{2}$
,,,,,Picotamide,C$_{21}$H$_{20}$N$_{4}$O$_{3}$
,,,,401.5,Setoperone,C$_{21}$H$_{24}$FN$_{3}$O$_{2}$S
,,,,,Benorilate,C$_{17}$H$_{15}$NO$_{5}$
,,,,,Proheptazine,C$_{17}$H$_{25}$NO$_{2}$
,,,,238.29,Pirimicarb,C$_{11}$H$_{18}$N$_{4}$O$_{2}$
,,,,206.32,Potassium dithionite,K$_{2}$O$_{4}$S$_{2}$
,,,,,Benactyzine,C$_{20}$H$_{25}$NO$_{3}$
,,,,,NVP-AUY922,C$_{26}$H$_{31}$N$_{3}$O$_{5}$
,,,,,Flor$\beta$pir (18F),C$_{20}$H$^{18}_{25}$FN$_{2}$O$_{3}$
91,2.3,,Soluble,343.26,Gadolinium(III) nitrate,Gd(NO$_{3}$)$_{3}$
,,,,,Olopatadine,C$_{21}$H$_{23}$NO$_{3}$
,,,,,JTE-907,C$_{24}$H$_{26}$N$_{2}$O$_{6}$
,,,,193.807,Chromium(IV) chloride,CrCl$_{4}$
70,,,reacts violently,,Manganese(IV) fluoride,MnF$_{4}$
1438,2.013,2600,reacts violently to form LiOH,29.88,Lithium oxide,Li$_{2}$O
,,,,,Triazene,H$_{3}$N$_{3}$
56-59,,243,soluble,123.15,P-Anisidine,C$_{7}$H$_{9}$NO
,,,,,Cimetropium bromide,
,,,,,Flutazolam,C$_{19}$H$_{18}$ClFN$_{2}$O$_{3}$
,,,,,Tipifarnib,C$_{27}$H$_{22}$Cl$_{2}$N$_{4}$O
199.5,,,5,,Arbutin,C$_{12}$H$_{16}$O$_{7}$
,,,,,Ro48-6791,C$_{21}$H$_{25}$FN$_{6}$O$_{2}$
-92,0.803,92,6,86.13,Methyl isopropyl ketone,C$_{5}$H$_{10}$O
238-242,,,,428.43186,Wortmannin,C$_{23}$H$_{24}$O$_{8}$
,,,,,NESS-0327,C$_{24}$H$_{23}$Cl$_{3}$N$_{4}$O
,,,,,Gentamicin,C$_{21}$H$_{43}$N$_{5}$O$_{7}$
,,,,,Levonorgestrel,C$_{21}$H$_{28}$O$_{2}$
38.5,1.094,258,2470,,Acetanisole,C$_{9}$H$_{10}$O$_{2}$
,,,,,Cycloserine,C$_{3}$H$_{6}$N$_{2}$O$_{2}$
0,,25,,76.05,Peracetic acid,C$_{2}$H$_{4}$O$_{3}$
86.5,3.82,,,,Ruthenium pentafluoride,F$_{5}$Ru
,,,,,Tetrazepam,C$_{16}$H$_{17}$ClN$_{2}$O
166.8,2.1,160.5,decomposition,,Phosphorus pentachloride,PCl$_{5}$
,,,,386.65,Lathosterol,C$_{27}$H$_{46}$O
,,,,,EDMA,C$_{12}$H$_{17}$NO$_{2}$
,,,,,Phendimetrazine,C$_{12}$H$_{17}$NO
,,,,,Dextrin,(C$_{6}$H$_{10}$O$_{5}$)$_{n}$
-24,,144.4,0.02% (20$^{\circ}$C),,O-Xylene,C$_{8}$H$_{10}$
,,,,,Malonyl-CoA,C$_{24}$H$_{38}$N$_{7}$O$_{19}$P$_{3}$S
,,,,,Ketanserin,C$_{22}$H$_{22}$FN$_{3}$O$_{3}$
,,,,,AM-1241,C$_{22}$H$_{22}$IN$_{3}$O$_{3}$
160,,,,663.43,Nicotinamide adenine dinucleotide,C$_{21}$H$_{27}$N$_{7}$O$_{14}$P$_{2}$
,,,,,Mestranol,C$_{21}$H$_{26}$O$_{2}$
,,,,,Piclamilast,C$_{18}$H$_{18}$Cl$_{2}$N$_{2}$O$_{3}$
>200,,,,,Lithium 12-hydroxystearate,C$_{18}$H$_{35}$LiO$_{3}$
,,,,282.42,Dehydroretinal,C$_{20}$H$_{26}$O
,,,soluble in mineral spirits,481.6,Chromium(III) 2-ethylhexanoate,C$_{24}$H$_{45}$CrO$_{6}$
-126.8,0.00276,-100.3,exothermic decomposition,67.82,Boron trifluoride,BF$_{3}$
,,,,,Ethoprop,C$_{8}$H$_{19}$O$_{2}$PS$_{2}$
,,,,,Meclinertant,C$_{32}$H$_{31}$ClN$_{4}$O$_{5}$
,,,,150.13,Xylulose,C$_{5}$H$_{10}$O$_{5}$
398,,500,4.9,294.185,Potassium dichromate,K$_{2}$Cr$_{2}$O$_{7}$
,,,,,Ethylnorepinephrine,C$_{10}$H$_{15}$NO$_{3}$
,,,,,Tabimorelin,C$_{32}$H$_{40}$N$_{4}$O$_{3}$
,,,,,Carbomycin,C$_{13}$H$_{24}$N$_{4}$O$_{3}$S
,,,,,Mesna,C$_{2}$H$_{5}$NaO$_{3}$S$_{2}$
190-191,,309-310,0.02,,Pentachlorophenol,C$_{6}$HCl$_{5}$O
315,,,,532.7,Rubrene,C$_{42}$H$_{28}$
,,,,,Teprenone,C$_{23}$H$_{38}$O
,,,,,BRL-50481,C$_{9}$H$_{12}$N$_{2}$O$_{4}$S
314,,,Slightly,,Fluorescein,C$_{20}$H$_{12}$O$_{5}$
15,1.27,51,,58.04,Glyoxal,C$_{2}$H$_{2}$O$_{2}$
,,,,,Clomifene,C$_{26}$H$_{28}$ClNO
115,,,,,Lithium azide,LiN$_{3}$
92-94,1.014,359,insoluble,244.33,Triphenylmethane,C$_{19}$H$_{16}$
-18,,191,Insoluble,,Nonanal,C$_{9}$H$_{18}$O
,,,40,238.3012,HEPES,C$_{8}$H$_{18}$N$_{2}$O$_{4}$S
,3.098,,soluble,,Sodium selenate,Na$_{2}$SeO$_{4}$
,,,,190.1,L-selectride,C$_{12}$H$_{28}$BLi
,,,,,Alphenal,C$_{13}$H$_{12}$N$_{2}$O$_{3}$
,,,,,Ioglicic acid,
,,400,,,Dioctyl terephthalate,C$_{24}$H$_{38}$O$_{4}$
,,180,100,,Propiconazole,C$_{15}$H$_{17}$Cl$_{2}$N$_{3}$O$_{2}$
,,,,,BMY-7 378,
1060,4.26,2467,insoluble,148.742,Aluminium antimonide,AlSb
,,,,,Clopamide,C$_{14}$H$_{20}$ClN$_{3}$O$_{3}$S
,,,,,Adatanserin,C$_{21}$H$_{31}$N$_{5}$O
156,1.665,310,117.43,,Citric acid,C$_{6}$H$_{8}$O$_{7}$
,,,,322.69,Tricetinidin,C$_{15}$H$_{11}$O$^{+}_{6}$(Cl$^{-}$)
,,,,,Rabeprazole,C$_{18}$H$_{21}$N$_{3}$O$_{3}$S
,,,,,RTI-112,C$_{17}$H$_{22}$ClNO$_{2}$
196,,,,,Dibenz(a j)anthracene,C$_{22}$H$_{14}$
decomposes at 100,2.08,,insoluble,363.78,Diiron nonacarbonyl,Fe$_{2}$C$_{9}$O$_{9}$
,,,50,,G418,C$_{20}$H$_{40}$N$_{4}$O$_{10}$
,0.79,,Reacts with water,107.1233,Lithium diisopropylamide,C$_{6}$H$_{14}$LiNorLiN(C$_{3}$H$_{7}$)$_{2}$
500,11.4,,,222.229,Osmium dioxide,OsO$_{2}$
,,,,,Bentazepam,C$_{17}$H$_{16}$N$_{2}$OS
-181,1.526,-81.5,0.009,104.46,Chlorotrifluoromethane,CClF$_{3}$
6,1.93,142,,,Perflubron,C$_{8}$F$_{17}$Br
,,,,,Erbulozole,C$_{24}$H$_{27}$N$_{3}$O$_{5}$S
,,,,,Tefibazumab,C$_{6548}$H$_{10122}$N$_{1730}$O$_{2034}$S$_{44}$
52.5,,113.5,36,,Neopentyl alcohol,C$_{5}$H$_{12}$O
,,,,,Estazolam,C$_{16}$H$_{11}$ClN$_{4}$
213,1.436,,160,,Guanidine nitrate,CH$_{6}$N$_{4}$O$_{3}$
,,,,,Neochlorogenic acid,C$_{16}$H$_{18}$O$_{9}$
-24,0.91,165,Insoluble,,Alpha-Methylstyrene,C$_{9}$H$_{10}$
,,,Partially soluble,,Chrysoine resorcinol,C$_{12}$H$_{9}$N$_{2}$NaO$_{5}$S
,,,,1388.6,Urotensin-II,C$_{64}$H$_{85}$N$_{13}$O$_{18}$S$_{2}$
,,,,,Iotrolan,C$_{37}$H$_{48}$I$_{6}$N$_{6}$O$_{18}$
,,,,,Phenylephrine,C$_{9}$H$_{13}$NO$_{2}$
171,,170,,183.37,Sodium bis(trimethylsilyl)amide,C$_{6}$H$_{18}$NNaSi$_{2}$
174,,,somewhat soluble in dichloromethane,,Rhodocene,C$_{10}$H$_{10}$Rh
,,,,347.53,Anandamide,C$_{22}$H$_{37}$NO$_{2}$
85,,,0.35,,Bifenox,C$_{14}$H$_{9}$Cl$_{2}$NO$_{5}$
,,,,,Tapentadol,C$_{14}$H$_{23}$NO
,,,,186.25296,Tetrahydroharman,C$_{12}$H$_{14}$N$_{2}$
,,160,,210.27,Jasmonic acid,C$_{12}$H$_{18}$O$_{3}$
-30,,275,,,Tetraethylene glycol dimethyl ether,C$_{10}$O$_{5}$H$_{22}$
260-262,,,moderate,574.03,Bis(triphenylphosphine)iminium chloride,C$_{36}$H$_{30}$ClNP$_{2}$
202,,,,,Pseudaconitine,C$_{36}$H$_{51}$NO$_{12}$
,,,,,Heterocodeine,C$_{18}$H$_{21}$NO$_{3}$
,,,,197.231,Metanephrine,C$_{10}$H$_{15}$NO$_{3}$
68,,,,,DiI,C$_{59}$H$_{97}$ClN$_{2}$O$_{4}$
,1.963,,,,Pyrroloquinoline quinone,C$_{14}$H$_{6}$N$_{2}$O$_{8}$
292,2.17,,33.7,100.115,Potassium bicarbonate,KHCO$_{3}$
,,,,461.462,Morphine-3-glucuronide,C$_{23}$H$_{27}$NO$_{9}$
,,,,,Melanocyte-inhibiting factor,
258-263,1.277,,,,Phenolphthalein,C$_{20}$H$_{14}$O$_{4}$
,,,,,Clebopride,C$_{20}$H$_{24}$ClN$_{3}$O$_{2}$
,,,,562.658,Protoporphyrin IX,C$_{34}$H$_{34}$N$_{4}$O$_{4}$
,,,,,Bunazosin,C$_{19}$H$_{27}$N$_{5}$O$_{3}$
,,,,,CI-966,C$_{23}$H$_{21}$F$_{6}$NO$_{3}$
,,,,,Normorphine,C$_{16}$H$_{17}$NO$_{3}$
,,,,,LY-310762,C$_{24}$H$_{27}$FN$_{2}$O$_{2}$
840,1.74,912,,110.262,Potassium sulfide,K$_{2}$S
,8.25,,,323.871,Gold monoiodide,AuI
,,,,,Reversine,C$_{21}$H$_{27}$N$_{7}$O
,,,,,Sibutramine,C$_{17}$H$_{26}$ClN
,,,,,Amarogentin,C$_{29}$H$_{30}$O$_{13}$
,,,,437.55,N-Formylmethionine-leucyl-phenylalanine,C$_{21}$H$_{31}$N$_{3}$O$_{5}$S
,,,,,Lichesterol,C$_{28}$H$_{44}$O
,,,,,Methylcobalamin,C$_{63}$H$_{91}$CoN$_{13}$O$_{14}$P
,,,,590.49,Orange B,C$_{22}$H$_{16}$N$_{4}$Na$_{2}$O$_{9}$S$_{2}$
,,,,,O-823,C$_{23}$H$_{27}$NO$_{2}$
,,,,506.54,Aviculin,C$_{26}$H$_{34}$O$_{10}$
,,,,,Metrifonate,C$_{4}$H$_{8}$Cl$_{3}$O$_{4}$P
-7,,127,,,Diketene,C$_{4}$H$_{4}$O$_{2}$
,,,,,Ytterbium(III) sulfate,Yb$_{2}$(SO$_{4}$)$_{3}$
83.5,1.13,342,Insoluble,,Fluorenone,C$_{13}$H$_{8}$O
,,,,,Intriptyline,C$_{21}$H$_{19}$N
,,,,,Izonsteride,C$_{24}$H$_{26}$N$_{2}$OS$_{2}$
2500,,,,244.049,Thorium(IV) carbide,ThC
,,,,,Enpiperate,C$_{20}$H$_{23}$NO$_{3}$
156-159,,,,,Hydroxybenzotriazole,C$_{6}$H$_{5}$N$_{3}$O
,,,,,Phenprobamate,C$_{10}$H$_{13}$NO$_{2}$
308,,380,73,84.9947,Sodium nitrate,NaNO$_{3}$
79,4.3,,soluble,324.6,Mercury(II) nitrate,Hg(NO$_{3}$)$_{2}$
25.4,3.29,40,,165.07,Ruthenium tetroxide,RuO$_{4}$
210,,,,,Vasicine,C$_{11}$H$_{12}$N$_{2}$O
,,,,,Dithiazanine iodide,
,,,,368.49,Dehydroepiandrosterone sulfate,C$_{19}$H$_{28}$O$_{5}$S
,,,,,Epitestosterone,C$_{19}$H$_{28}$O$_{2}$
-46,,197,good,,Trimethyl phosphate,(CH$_{3}$)$_{3}$PO$_{4}$
50-57,,261,Slightly soluble,154.16,Syringol,C$_{8}$H$_{10}$O$_{3}$
,,,,346.33,Scillavone B,C$_{18}$H$_{18}$O$_{7}$
,,,,,Policresulen,chemical_formula(C$_{9}$H$_{8}$O$_{4}$S)$_{n}$
49.3,0.811,344,insoluble,,Cetyl alcohol,C$_{16}$H$_{34}$O
,,,,244.24,Oxyresveratrol,C$_{14}$H$_{12}$O$_{4}$
,,,Sparingly soluble,307.43,Dihydrocapsaicin,C$_{18}$H$_{29}$NO$_{3}$
,,,,,Methimazole,C$_{4}$H$_{6}$N$_{2}$S
,,,,,Acetylmorphone,C$_{19}$H$_{21}$NO$_{4}$
,,,,,Eplivanserin,C$_{19}$H$_{21}$FN$_{2}$O$_{2}$
,,,,,Triethylenemelamine,C$_{9}$H$_{12}$N$_{6}$
50,,195-196,,,Phenyl acetate,C$_{8}$H$_{8}$O$_{2}$
1090,3.77,,,235.644,Gallium(III) sulfide,Ga$_{2}$S$_{3}$
,,,,,Daclizumab,C$_{6332}$H$_{9808}$N$_{1678}$O$_{1989}$S$_{42}$
,,,,,Azaspiracid,C$_{18}$H$_{24}$O$_{5}$
,,,,,Batimastat,C$_{23}$H$_{31}$N$_{3}$O$_{4}$S$_{2}$
,,,,,Alfatradiol,C$_{18}$H$_{24}$O$_{2}$
>1000,3.87,,slightly soluble,112.84,Iron(III) fluoride,FeF$_{3}$
,,,,,RTI-274,C$_{21}$H$_{22}$FNO$_{3}$
,1.172,,,,Cinepazet,C$_{20}$H$_{28}$N$_{2}$O$_{6}$
,,,,254.28,Dalbergichromene,C$_{16}$H$_{14}$O$_{3}$
,,,,,Dihydroimidazol-2-ylidene,C$_{3}$H$_{6}$N$_{2}$
,,,,,Enzalutamide,C$_{21}$H$_{16}$F$_{4}$N$_{4}$O$_{2}$S
,,,,333.02,Uranium pentafluoride,UF$_{5}$
,,,,,Alfentanil,C$_{21}$H$_{32}$N$_{6}$O$_{3}$
680,3.54,740,57.7,161.47,Zinc sulfate,ZnSO$_{4}$
38,,320,insoluble,,Octadecanal,C$_{18}$H$_{36}$O
,,,,,Vismodegib,C$_{19}$H$_{14}$Cl$_{2}$N$_{2}$O$_{3}$S
,,154,,502.12,Perfluorooctanesulfonyl fluoride,C$_{8}$F$_{18}$O$_{2}$S
,,,,,MMDMA (drug),
ca. 19,1.22,108.5,miscible,,Hexafluorosilicic acid,H$_{2}$SiF$_{6}$
,,,,,Peginterferon alfa-2b,
,,,,537.64,Tomopenem,C$_{23}$H$_{35}$N$_{7}$O$_{6}$S
,,,,476.73,Panaxatriol,C$_{30}$H$_{52}$O$_{4}$
,,,,,Interferon $\gamma$,C$_{761}$H$_{1206}$N$_{214}$O$_{225}$S$_{6}$
,,,,,Xylazine,C$_{12}$H$_{16}$N$_{2}$S
851,2.54,,Decahydrate:,105.9888,Sodium carbonate,Na$_{2}$CO$_{3}$
,,,,,Antrafenine,C$_{30}$H$_{26}$F$_{6}$N$_{4}$O$_{2}$
-138.8,,-50.2,0.376,60.075,Carbonyl sulfide,COS
,,,,504.66,SYBR Safe,C$_{28}$H$_{28}$N$_{2}$O$_{3}$S$_{2}$
,,,,241.28,BOM (psychedelic),C$_{12}$H$_{19}$NO$_{4}$
,,,,,Methionine sulfoxide,C$_{5}$H$_{11}$NO$_{3}$S
,,,,400.59,Mesabolone,C$_{26}$H$_{40}$O$_{3}$
,,,,,Ibogamine,C$_{19}$H$_{24}$N$_{2}$
,,,,,Benzylpiperazine,C$_{11}$H$_{16}$N$_{2}$
,,,,,Cepharanoline,C$_{36}$H$_{36}$N$_{2}$O$_{6}$
,,,,,Oxatriquinacene,C$_{9}$H$_{9}$O
,1.06,,,,Polymethylhydrosiloxane,(CH$_{3}$(H)SiO)$_{n}$
~245,,,,,Biocytin,C$_{16}$H$_{28}$N$_{4}$O$_{4}$S
,,,,,Amikacin,C$_{22}$H$_{43}$N$_{5}$O$_{13}$
215.76,1.28,339.9,0.022,,Anthracene,C$_{14}$H$_{10}$
,,,,,Edoxaban,C$_{24}$H$_{30}$ClN$_{7}$O$_{4}$S
,1.517,,soluble,423.9,Sodium arsenate,H$_{24}$Na$_{3}$AsO$_{16}$(dodecahydrate)
,,,,,S-444 823,
,,,,,Aplindore,C$_{18}$H$_{18}$N$_{2}$O$_{3}$
,,,limited,,EDTMP,C$_{6}$H$_{20}$N$_{2}$O$_{12}$P$_{4}$
,,,,364.206,Xanthosine monophosphate,C$_{10}$H$_{13}$N$_{4}$O$_{9}$P
961.9,5.03,2212,3.27010$^{-3}$ g/100mL,303.755,Silver oxalate,Ag$_{2}$C$_{2}$O$_{4}$
,,,Soluble,886.86,Amanullin,C$_{39}$H$_{54}$N$_{10}$O$_{12}$S
,,,,,Linoleyl alcohol,C$_{18}$H$_{34}$O
,,,,,Carpipramine,C$_{28}$H$_{38}$N$_{4}$O
,,,,,Cyclobutanetetrone,C$_{4}$O$_{4}$
,,,,150.22,Chrysanthenone,C$_{10}$H$_{14}$O
61.2,4.18,200,Decomposes,411.68717,Phosphorus triiodide,PI$_{3}$
,,,4.19g/100g @ 25,,Histidine,C$_{6}$H$_{9}$N$_{3}$O$_{2}$
,,,,,Dihydroartemisinin,C$_{15}$H$_{24}$O$_{5}$
,,,,,Odalasvir,chemical_formulaC$_{60}$H$_{72}$N$_{8}$O$_{6}$
,,,,,Cefotiam,C$_{18}$H$_{23}$N$_{9}$O$_{4}$S$_{3}$
-7,1.146,196-197,,122.12,Salicylaldehyde,C$_{7}$H$_{6}$O$_{2}$
,1.23,482.9,,352.4083,Palmatine,C$_{21}$H$_{22}$NO$^{+}_{4}$
,,,,,Chloralodol,C$_{8}$H$_{15}$Cl$_{3}$O$_{3}$
,,,,,Sulfide,S$^{2-}$
,,,,,Cetirizine,C$_{21}$H$_{25}$ClN$_{2}$O$_{3}$
,,,,,KF-26777,C$_{16}$H$_{18}$BrN$_{5}$O
1110,,1748,4.35,150.41,Cadmium fluoride,CdF$_{2}$
,,,,,Fludiazepam,C$_{16}$H$_{12}$ClFN$_{2}$O
,,194,,,Methanediol,CH$_{4}$O$_{2}$
,,,,,L-838 417,
,,,,,Strontium ranelate,
,,,,,Arfendazam,C$_{18}$H$_{17}$ClN$_{2}$O$_{3}$
-30,0.909,145,0.03% (20$^{\circ}$C),104.15,Styrene,C$_{8}$H$_{8}$
,,,,,Rapacuronium,C37H61N2O4charge+
,,,,,Ozonide,O$_{3}$
,0.8593,97.8,0.8,,Tert-Butyl acetate,C$_{6}$H$_{12}$O$_{2}$
,,202-203,,110.13,Methyl methanesulfonate,C$_{2}$H$_{6}$O$_{3}$S
77.9,,201,very soluble,,Gallium trichloride,GaCl$_{3}$
decomposes at 80,2.89,,,424.146,Uranyl acetate,UO$_{2}$(CH$_{3}$COO)$_{2}$(anhydrous)
,,142,10,,Perfluorodecalin,C$_{10}$F$_{18}$
,,161,Reacts,,Methanesulfonyl chloride,CH$_{3}$ClO$_{2}$S
,,,,,Lomerizine,C$_{27}$H$_{30}$F$_{2}$N$_{2}$O$_{3}$
,,,,,PF-592 379,
,,,,,Nitronium tetrafluoroborate,BNO$_{2}$F$_{4}$
,,,,,Bitolterol,C$_{28}$H$_{31}$NO$_{5}$
,,,,,DAA-1106,C$_{23}$H$_{22}$FNO$_{4}$