Property Melting Point,Property Density,Property Boiling Point,Property Solubility,Property Molar Mass,Name,formula
85,,,,,Alpha-Parinaric acid,C$_{18}$H$_{28}$O$_{2}$
,,,,,Cefdaloxime,C$_{14}$H$_{15}$N$_{5}$O$_{6}$S$_{2}$
,,,,,Cyprenorphine,C$_{26}$H$_{33}$NO$_{4}$
,,,,,Methylnaltrexone,C$_{21}$H$_{26}$NO$_{4}$
,,,,,Clorexolone,C$_{14}$H$_{17}$ClN$_{2}$O$_{3}$S
-35.8,0.97,206,Insoluble,,Tetralin,C$_{10}$H$_{12}$
,,,,,Metitepine,C$_{20}$H$_{24}$N$_{2}$S$_{2}$
,,,,,Methcathinone,C$_{10}$H$_{13}$NO
,,,,,Embutramide,C$_{17}$H$_{27}$NO$_{3}$
,,,,,Methyldihydromorphine,C$_{18}$H$_{23}$NO$_{3}$
,,,,,Clotiazepam,C$_{16}$H$_{15}$ClN$_{2}$OS
160,,,,351.43,Tetrapropylammonium perruthenate,C$_{12}$H$_{28}$NRuO$_{4}$
,,,,,Ivabradine,C$_{27}$H$_{36}$N$_{2}$O$_{5}$
,,,,,Iratumumab,C$_{6358}$H$_{9830}$N$_{1682}$O$_{1992}$S$_{38}$
,,,,,Penimepicycline,C$_{45}$H$_{56}$N$_{6}$O$_{14}$S
208,1.399,,practically insoluble,353.369,Protopine,C$_{20}$H$_{19}$NO$_{5}$
,,,,,Gallopamil,C$_{28}$H$_{40}$N$_{2}$O$_{5}$
,,,"Soluble in water, slightly soluble in ethanol",799.814,Methyl blue,C$_{37}$H$_{27}$N$_{3}$Na$_{2}$O$_{9}$S$_{3}$
,,,,194.18,Methyl caffeate,C$_{10}$H$_{10}$O$_{4}$
,,,,,Ibacitabine,C$_{9}$H$_{12}$IN$_{3}$O$_{4}$
>300,,,,,Roxarsone,C$_{6}$AsNH$_{6}$O$_{6}$
,,,,,Ro60-0175,C$_{11}$H$_{12}$ClFN$_{2}$
,,,,,Losoxantrone,C$_{22}$H$_{27}$N$_{5}$O$_{4}$
240,,,soluble,,Cysteine,C$_{3}$H$_{7}$NO$_{2}$S
,,,,255.02,Chlorflurazole,C$_{8}$H$_{3}$Cl$_{2}$F$_{3}$N$_{2}$
,,,,,Arseno$\beta$ine,C$_{5}$H$_{11}$AsO$_{2}$
,,,,,Ipratropium bromide,
,,,,121.924,Bromine azide,BrN$_{3}$
,,,,,Chloroxine,C$_{9}$H$_{5}$Cl$_{2}$NO
73.6,1.651,200,310,82,Phosphorous acid,H$_{3}$PO$_{3}$
1201,2.52,,insoluble,89.566,Lithium metasilicate,Li$_{2}$SiO$_{3}$
,,,,,Binedaline,C$_{19}$H$_{24}$ClN$_{3}$
4215,,,,,Tantalum hafnium carbide,Ta$_{4}$HfC$_{5}$
,,,,,Isothipendyl,C$_{16}$H$_{19}$N$_{3}$S
,,,,,Perhydropyrene,C$_{16}$H$_{26}$
,,,,416.3,Cypermethrin,C$_{22}$H$_{19}$Cl$_{2}$NO$_{3}$
,,,,,Mepitiostane,C$_{25}$H$_{40}$O$_{2}$S
,3.264,,,,Adrenochrome,C$_{9}$H$_{9}$NO$_{3}$
,,,,,Lercanidipine,C$_{36}$H$_{41}$N$_{3}$O$_{6}$
2550,,,,,Zirconium(IV) silicate,O$_{4}$SiZr
33,,58,,,Hydroxylamine,H$_{3}$NO
13.2,,138.35,insoluble,,P-Xylene,C$_{8}$H$_{10}$
2763,,3500,insoluble,55.255,Boron carbide,B$_{4}$C
,,,,,Iofendylate,C$_{19}$H$_{29}$IO$_{2}$
-66.3,0.74,172,,,Decene,C$_{10}$H$_{20}$
,,,,,Syringic acid,C$_{9}$H$_{10}$O$_{5}$
,,,,,S-14 506,C$_{24}$H$_{26}$FN$_{3}$O$_{2}$
,,,,,Flutemazepam,C$_{16}$H$_{12}$ClFN$_{2}$O$_{2}$
,,,,453.557,Primuline,C$_{21}$H$_{15}$N$_{3}$O$_{3}$S$_{3}$(freeacid)
,,,,,Triethylcholine,C$_{8}$H$_{20}$NO
,,,,724.15,Chlorophyllin,C$_{34}$H$_{31}$CuN$_{4}$Na$_{3}$O$_{6}$
$\geq$300,,,,,Pamoic acid,C$_{23}$H$_{16}$O$_{6}$
trans:-30.4,0.896,trans: 187,Insoluble,138.25,Decalin,C$_{10}$H$_{18}$
,,,,,Gatifloxacin,C$_{19}$H$_{22}$FN$_{3}$O$_{4}$
286,1.308,379.8,insoluble,,Anthraquinone,C$_{14}$H$_{8}$O$_{2}$
,,,,,Imipenem,C$_{12}$H$_{17}$N$_{3}$O$_{4}$S
,,,,,Prostaglandin E2,
546,6.33,,reacts,434.06,Zinc antimonide,"ZnSb,Zn$_{3}$Sb$_{2}$,Zn$_{4}$Sb$_{3}$"
,,,,163.172,Perosamine,C$_{6}$H$_{13}$NO$_{4}$
,,,,,RS-67 333,
-75,0.87,168,,144.22,Pentyl propanoate,C$_{8}$H$_{16}$O$_{2}$
,,,,,Rocuronium bromide,
,,,,,PF-4800567,C$_{17}$H$_{18}$ClN$_{5}$O$_{2}$
319,,,,177.16,Luminol,C$_{8}$H$_{7}$N$_{3}$O$_{2}$
,,,,415.29,Uranium pentachloride,UCl$_{5}$
,,,,,Metaflumizone,C$_{24}$H$_{16}$F$_{6}$N$_{4}$O$_{2}$
,,,,,Etoricoxib,C$_{18}$H$_{15}$ClN$_{2}$O$_{2}$S
,,,,,Paramenthane hydroperoxide,C$_{10}$H$_{20}$O$_{2}$
,,,,,Neopentane,C$_{5}$H$_{12}$
181.6,,,,,Fenoprop,C$_{9}$H$_{7}$Cl$_{3}$O$_{3}$
,,,,270.095,Uranium monosulfide,US
,,,,,Zuclopenthixol,C$_{22}$H$_{25}$ClN$_{2}$OS
,,,,,JWH-116,C$_{26}$H$_{27}$NO
,,,,,Albinterferon,C$_{3796}$H$_{5937}$N$_{1015}$O$_{1143}$S$_{50}$
,,,,,Canbisol,C$_{24}$H$_{38}$O$_{3}$
-18,,173,,,Benzofuran,C$_{8}$H$_{6}$O
-77.9,,56,miscible,,Aziridine,C$_{2}$H$_{5}$N
,,,,787.8,Nogalamycin,C$_{39}$H$_{49}$NO$_{16}$
,,,,,JNJ-26990990,C$_{9}$H$_{10}$N$_{2}$O$_{2}$S$_{2}$
,,,,,IDRA-21,C$_{8}$H$_{9}$ClN$_{2}$O$_{2}$S
,,,,,Calcium fumarate,CaC$_{4}$H$_{2}$O$_{4}$
,,,,,Codeine,C$_{18}$H$_{21}$NO$_{3}$
,,,,,Piboserod,C$_{22}$H$_{31}$N$_{3}$O$_{2}$
,,,,,Praziquantel,C$_{19}$H$_{24}$N$_{2}$O$_{2}$
,,,,,Perbromic acid,HBrO$_{4}$
,,,,884.1,Solasonine,C$_{45}$H$_{73}$NO$_{16}$
,,,,183.204,Normetanephrine,C$_{9}$H$_{13}$NO$_{3}$
232-233,0.9331,,,152.23,Piperitone,C$_{10}$H$_{16}$O
Decomposes @ 300,,,,308.02,Uranyl fluoride,UO$_{2}$F$_{2}$
,,,,,Remifentanil,C$_{20}$H$_{28}$N$_{2}$O$_{5}$
,,,,823.6,Propionyl-CoA,C$_{24}$H$_{40}$N$_{7}$O$_{17}$P$_{3}$S
,,,,,GW0742,C$_{21}$H$_{17}$F$_{4}$NO$_{3}$S$_{2}$
,,,,,Armodafinil,C$_{15}$H$_{15}$NO$_{2}$S
,0.98,,,,Methyl eugenol,C$_{11}$H$_{14}$O$_{2}$
2190-2270,4.97,,insoluble,223.83,Iron(II) chromite,FeCr$_{2}$O$_{4}$
,,,,,Betamipron,C$_{10}$H$_{11}$NO$_{3}$
118-123,,,,214.645,Clofibric acid,C$_{10}$H$_{11}$ClO$_{3}$
,,,,,Nitrazepam,C$_{15}$H$_{11}$N$_{3}$O$_{3}$
,,,,,Phosphatidylinositol 3-phosphate,C$_{11}$H$_{20}$O$_{16}$P$_{2}$
135,7.41,,1.55,241.21,Lead(II) hydroxide,Pb(OH)$_{2}$
90,3.1,,insoluble,392.16,Chromium(III) sulfate,Cr$_{2}$(SO$_{4}$)$_{3}$.12H$_{2}$O
,,,,,Benzylmorphine,C$_{24}$H$_{25}$NO$_{3}$
-78,,111,reacts,,Trimethyl phosphite,C$_{3}$H$_{9}$O$_{3}$P
,,,,346.28,Axillarin,C$_{17}$H$_{14}$O$_{8}$
,,,,,Leukotriene A4,C$_{20}$H$_{30}$O$_{3}$
33.4,2.633,,27,126.043,Sodium sulfite,Na$_{2}$SO$_{3}$
,,,insoluble,144.943,Sodium aluminium phosphate,NaH$_{14}$Al$_{3}$(PO$_{4}$)$_{8}$.4H$_{2}$O
,,,,,Brotizolam,C$_{15}$H$_{10}$BrClN$_{4}$S
,,,,,Spectinomycin,C$_{14}$H$_{24}$N$_{2}$O$_{7}$
,,,,206.19,Eugenin,C$_{11}$H$_{10}$O$_{4}$
,,,,294.199,Uranium disilicide,USi$_{2}$
,,145,,,N N'-Dimethyl-1 3-propanediamine,C$_{5}$H$_{14}$N$_{2}$
14,,50,slightly,,Nitroglycerin,C$_{3}$H$_{5}$N$_{3}$O$_{9}$
248-252,,,,,Thymolphthalein,C$_{28}$H$_{30}$O$_{4}$
175,1.187,200,7,,Atrazine,C$_{8}$H$_{14}$ClN$_{5}$
-91,,145-146,,130.18,Ethyl pentanoate,C$_{7}$H$_{14}$O$_{2}$
-50,,199,negligible,160.17,Diethyl malonate,C$_{7}$H$_{12}$O$_{4}$
,,,,,Coenzyme B,C$_{11}$H$_{22}$NO$_{7}$PS
,,,,,Sunepitron,C$_{17}$H$_{23}$N$_{5}$O$_{2}$
71,0.935,301.71,0.17,,Coumarin,C$_{9}$H$_{6}$O$_{2}$
1840,6.74,,,,LSAT (oxide),(LaAlO$_{3}$)$_{0.3}$(Sr$_{2}$TaAlO$_{6}$)$_{0.7}$
,,,,426.72,Cycloartenol,C$_{30}$H$_{50}$O
,1.046,72,,,Methylglyoxal,C$_{3}$H$_{4}$O$_{2}$
,,,,,Quinisocaine,C$_{17}$H$_{24}$N$_{2}$O
,,,good,312.01,Disodium hydrogen arsenate,H$_{15}$Na$_{2}$AsO$_{11}$(HePTaH$_{y}$DRaTe)
-55,1.836,133,reacts,,Methyldichloroarsine,CH$_{3}$AsCl$_{2}$
,,,,,Vitamin D5,C$_{29}$H$_{48}$O
,,,,,Ergocornine,C$_{31}$H$_{39}$N$_{5}$O$_{5}$
,,,,,Ethotoin,C$_{11}$H$_{12}$N$_{2}$O$_{2}$
,,,,,Dexloxiglumide,C$_{21}$H$_{30}$Cl$_{2}$N$_{2}$O$_{5}$
253,1.92,,43.82,68.007,Sodium formate,HCOONa
85,0.895,220,Insoluble,,Linalyl acetate,C$_{12}$H$_{20}$O$_{2}$
,,,,,Uranyl hydroxide,UH$_{2}$O$_{4}$
114-118,,,,396.65,Ergocalciferol,C$_{28}$H$_{44}$O
435,5.852,1159,85.78,,Silver(I) fluoride,AgF
,,,,,Tenuazonic acid,C$_{10}$H$_{15}$NO$_{3}$
71-72,,295.9,8400,279.33,Metalaxyl,C$_{15}$H$_{21}$NO$_{4}$
,,,,,Sulforidazine,C$_{21}$H$_{26}$N$_{2}$O$_{2}$S$_{2}$
,0.957,,,,Propamocarb,C$_{9}$H$_{20}$N$_{2}$O$_{2}$
,,,,,Benzedrone,C$_{17}$H$_{19}$NO
,,,,287.31,Pipermethystine,C$_{16}$H$_{17}$NO$_{4}$
,,,,,Entolimod,C$_{1464}$H$_{2419}$N$_{457}$O$_{519}$S$_{8}$
,,,,,Yohimban,C$_{19}$H$_{24}$N$_{2}$
,,,,,SB-357134,C$_{17}$H$_{18}$Br$_{2}$FN$_{3}$O$_{3}$S
200,1.19-1.31,228,,,Polyvinyl alcohol,(C$_{2}$H$_{4}$O)$_{x}$
181,,,,,Homophthalic acid,C$_{9}$H$_{8}$O$_{4}$
240,,,,,INT (chemical),C$_{19}$H$_{13}$ClIN$_{5}$O$_{2}$
,,,,,Dicloxacillin,C$_{19}$H$_{17}$Cl$_{2}$N$_{3}$O$_{5}$S
714,2.32,1412,anhydrous 52.9,95.211,Magnesium chloride,MgCl$_{2}$
,,,,,Naphthalen-1 8-diyl 1 3 2 4-dithiadiphosphetane 2 4-disulfide,C$_{10}$H$_{6}$P$_{2}$S$_{4}$
,,176.5,,118.176,Indane,C$_{9}$H$_{10}$
,,,,,Ifenprodil,C$_{21}$H$_{27}$NO$_{2}$
,,,,,Flavoxate,C$_{24}$H$_{25}$NO$_{4}$
114.9,,417.9,,258.27,Para-Azoxyanisole,C$_{14}$H$_{14}$N$_{2}$O$_{3}$
,,,,,Masoprocol,C$_{18}$H$_{22}$O$_{4}$
,,,,,Saquinavir,C$_{38}$H$_{50}$N$_{6}$O$_{5}$
,,145-148,,,N N'-Diisopropylcarbodiimide,C$_{7}$H$_{14}$N$_{2}$
258,,,,342.4083,Phellodendrine,C$_{20}$H$_{24}$NO$_{4}$
,,,,,Nisoldipine,C$_{20}$H$_{24}$N$_{2}$O$_{6}$
,,,,,Cocaethylene,C$_{18}$H$_{23}$NO$_{4}$
49-51,,206-208,,,Bromoacetic acid,C$_{2}$H$_{3}$BrO$_{2}$
,,,,180.24,Dihydroactinidiolide,C$_{11}$H$_{16}$O$_{2}$
,,,,,Epomediol,C$_{10}$H$_{18}$O$_{3}$
,,,,,Sulfabenzamide,C$_{23}$H$_{26}$N$_{2}$O$_{5}$
,,,,358.38,Pinoresinol,C$_{20}$H$_{22}$O$_{6}$
,,,,,Trimetozine,C$_{14}$H$_{19}$NO$_{5}$
400,,,slightly soluble,390.074,Vanadium(III) sulfate,V$_{2}$(SO$_{4}$)$_{3}$
,,,,,Arbaclofen placarbil,
,,,,,Hydroxyzine,C$_{21}$H$_{27}$ClN$_{2}$O$_{2}$
,,,,,Zolamine,C$_{15}$H$_{21}$N$_{3}$OS
,,,,,Cinoxacin,C$_{12}$H$_{10}$N$_{2}$O$_{5}$
,,,,,Cymserine,C$_{23}$H$_{29}$N$_{3}$O$_{2}$
,,,,,Sarmazenil,C$_{15}$H$_{14}$ClN$_{3}$O$_{3}$
177-182,,707,,518.563,Gossypol,C$_{30}$H$_{30}$O$_{8}$
,,,,,Buphedrone,C$_{11}$H$_{15}$NO
110,3.61,130,,110.61,Germanium difluoride,GeF$_{2}$
,,,,,Lepidolide,C$_{30}$H$_{40}$O$_{6}$
225-230,,,,,Polyglycolide,(C$_{2}$H$_{2}$O$_{2}$)$_{n}$
,,,,,Phensuximide,C$_{11}$H$_{11}$NO$_{2}$
,,,,,CSP-2503,C$_{22}$H$_{26}$N$_{4}$O$_{2}$
,,,,,Flopropione,C$_{9}$H$_{10}$O$_{4}$
,,,,,Levacetylmethadol,C$_{23}$H$_{31}$NO$_{2}$
,,,,,EHNA,C$_{14}$H$_{24}$ClN$_{5}$O
136-142,,,insoluble,690.75,Trost ligand,C$_{44}$H$_{40}$N$_{2}$O$_{2}$P$_{2}$
,,,,,Pindolol,C$_{14}$H$_{20}$N$_{2}$O$_{2}$
~2150,3.691-3.696,,insoluble,,Aluminium oxynitride,"(AlN)$_{x}$.(Al$_{2}$O$_{3}$)$_{1-x}$,"
68,1.07,167-169,,,Ethylidene diacetate,C$_{6}$H$_{10}$O$_{4}$
,,,,,Zoptarelin doxorubicin,
,,,,,Cefaloglycin,C$_{18}$H$_{19}$N$_{3}$O$_{6}$S
39,,,,,Cinnoline,C$_{8}$H$_{6}$N$_{2}$
211,,,,,Cethromycin,C$_{42}$H$_{59}$N$_{3}$O$_{10}$
,,,,,Xanomeline,C$_{14}$H$_{23}$N$_{3}$OS
837,,1657,Soluble,,Uranium(III) chloride,UCl$_{3}$
,,,,566.5,Castavinol C3,C$_{26}$H$_{30}$O$_{14}$
,1.339,,,276.6,DSP-4,C$_{11}$H$_{15}$BrClN
90,,,reacts,234.734,Silver subfluoride,Ag$_{2}$F
,,,,,Methastyridone,C$_{13}$H$_{15}$NO$_{2}$
88,,370,,,Terpyridine,C$_{15}$H$_{11}$N$_{3}$
,,,,,Iocetamic acid,
,,,,,BAY 57-1293,C$_{18}$H$_{18}$N$_{4}$O$_{3}$S$_{2}$
-41.5,,106,reacts,,Bis(chloromethyl) ether,C$_{2}$H$_{4}$Cl$_{2}$O
,,,,,Alpha N O-TMS,
-34.5,0.93,186,4.97,,Valeric acid,C$_{5}$H$_{10}$O$_{2}$
,,,,,Undecane,C$_{11}$H$_{24}$
825,,,,345.8155,Copper silicide,Cu$_{5}$Si
,,,,,Rifampicin,C$_{43}$H$_{58}$N$_{4}$O$_{12}$
,,,,148.15,Colitose,C$_{6}$H$_{12}$O$_{4}$
,,,,,Tipiracil,chemical_formulaC$_{9}$H$_{11}$ClN$_{4}$O$_{2}$
,,,,554.723,Pantethine,C$_{22}$H$_{42}$N$_{4}$O$_{8}$S$_{2}$
,,,,,Travoprost,C$_{26}$H$_{35}$F$_{3}$O$_{6}$
,,,,938.63,Punicafolin,C$_{41}$H$_{30}$O$_{26}$
212,4.15,345,decomposes,450.436,Gallium(III) iodide,Ga$_{2}$I$_{6}$
,7.78,,insoluble,351.14,Molybdenum ditelluride,MoTe$_{2}$
,,,,,Ophthalmic acid,C$_{11}$N$_{3}$H$_{19}$O$_{6}$
170,1.48,,45.1,190.107,Sodium metabisulfite,"Na$_{2}$S$_{2}$O$_{5}$,Na-O-(SO)-O-(SO)-O-Na"
62,,224,,,Oxybenzone,C$_{14}$H$_{12}$O$_{3}$
,,164.5,Soluble,161.24,Triethylammonium acetate,(CH$_{3}$CH$_{2}$)$_{3}$NHOCOCH$_{3}$
,,,,,Naranol,C$_{18}$H$_{21}$NO$_{2}$
,,,,,Otelixizumab,C$_{6448}$H$_{9954}$N$_{1718}$O$_{2016}$S$_{42}$
,,,,156.982,Sodium percarbonate,Na$_{2}$CO$_{3}$1.5H$_{2}$O$_{2}$
172,1.119,253,,,Phenylacetylcarbinol,C$_{9}$H$_{10}$O$_{2}$
116-117,,173,high in: ethanol,,Hordenine,C$_{10}$H$_{15}$NO
,,,,,Gadobutrol,C$_{18}$H$_{31}$GdN$_{4}$O$_{9}$
-82.5,,101.5,,105.09,Isopropyl nitrate,C$_{3}$H$_{7}$NO$_{3}$
,,,,,Telavancin,C$_{80}$H$_{106}$Cl$_{2}$N$_{11}$O$_{27}$P
,,,,,Cidofovir,C$_{8}$H$_{14}$N$_{3}$O$_{6}$P
,,,,,Rhc80267,C$_{20}$H$_{34}$N$_{4}$O$_{4}$
,,,,,Linezolid,C$_{16}$H$_{20}$FN$_{3}$O$_{4}$
,,,,,Nefopam,C$_{17}$H$_{19}$NO
,,,,222.263,Cystathionine,C$_{7}$H$_{14}$N$_{2}$O$_{4}$S
,,,,,Netilmicin,C$_{21}$H$_{41}$N$_{5}$O$_{7}$
,,,,,CDPPB,C$_{23}$H$_{18}$N$_{4}$O
,,,,,Dihydropyridine,C$_{5}$H$_{7}$N
,,,,,AM-2201,C$_{24}$H$_{22}$FNO
,,,,,Benzylthiouracil,C$_{11}$H$_{10}$N$_{2}$OS
874,3.052,1250,anhydrous:   53.8,158.53,Strontium chloride,SrCl$_{2}$
,,,,,Hexylcaine,C$_{16}$H$_{23}$NO$_{2}$
,,,,,Para-Iodoamphetamine,C$_{9}$H$_{12}$IN
,,,,,Dipotassium pentasulfide,K$_{2}$S$_{5}$
,,,,,Ciclonicate,C$_{15}$H$_{21}$NO$_{2}$
,,,,,Ammonium oxalate,C$_{2}$H$_{8}$N$_{2}$O$_{4}$
,,,,225.9,Cobalt(II) chlorate,Co(ClO$_{3}$)$_{2}$
,4.76,,,95.611,Copper monosulfide,CuS
,,,,,Umespirone,C$_{28}$H$_{40}$N$_{4}$O$_{5}$
,,,,,Lofepramine,C$_{26}$H$_{27}$ClN$_{2}$O
205,,,not soluble in water,833.15,Oxotrichlorobis(triphenylphosphine)rhenium(V),ReOCl$_{3}$(PPH$_{3}$)$_{2}$
-40,1.331,467.01,moderate,506.25,Hexaethyl tetraphosphate,C$_{12}$H$_{30}$P$_{4}$O$_{13}$
,,,,,Razupenem,C$_{18}$H$_{21}$N$_{3}$O$_{4}$S$_{2}$
,2.226,,1.71,164.45,Cadmium cyanide,Cd(CN)$_{2}$
152,,,,,Diethylthiambutene,C$_{16}$H$_{21}$NS$_{2}$
,,,,311.29,Icilin,C$_{16}$H$_{13}$N$_{3}$O$_{4}$
,,,,,Cipralisant,C$_{14}$H$_{20}$N$_{2}$
97,,,,,Aceperone,C$_{24}$H$_{29}$FN$_{2}$O$_{2}$
282,,,,,Hypoglycin A,C$_{7}$H$_{11}$NO$_{2}$
,,,,,Calcium erythorbate,Ca(C$_{6}$H$_{7}$O$_{6}$)$_{2}$
,,,,,Desoximetasone,C$_{22}$H$_{29}$FO$_{4}$
,,,,,Cinnarizine,C$_{26}$H$_{28}$N$_{2}$
,,,,,Para-Fluorophenylpiperazine,C$_{10}$H$_{13}$FN$_{2}$
122,,,Slightly soluble (dihydrochloride),,Dimethyl pimelimidate,C$_{9}$H$_{18}$N$_{2}$O$_{2}$
,,,,,Rasagiline,C$_{12}$H$_{13}$N
145-148,,404,0.135,202.25,Pyrene,C$_{16}$H$_{10}$
192,1.92,,160,,Maneb,(C$_{4}$H$_{6}$MnN$_{2}$S$_{4}$)$_{n}$
,,98-100,,,Ethylene glycol dimethacrylate,C$_{10}$H$_{14}$O$_{4}$
,,,,,Filgotinib,C$_{21}$H$_{23}$N$_{5}$O$_{3}$S
,,400,miscible,237.19,Dicrotophos,C$_{8}$H$_{16}$NO$_{5}$P
1583,2.536,100,anhydrous:,,Trisodium phosphate,Na$_{3}$PO$_{4}$
606,5.67,1290,0.0042,190.45,Copper(I) iodide,CuI
,,,,,Echothiophate,C$_{9}$H$_{23}$INO$_{3}$PS
102-106,1.6,,0.0001% (20$^{\circ}$C),,Chlordane,C$_{10}$H$_{6}$Cl$_{8}$
,,,Soluble as sodium salt,,Lipoic acid,C$_{8}$H$_{14}$O$_{2}$S$_{2}$
,,,,392.17,Disodium inosinate,C$_{10}$H$_{11}$N$_{4}$Na$_{2}$O$_{8}$P
,,,,334.0288,Uranium hexoxide,UO$_{6}$
22-24,,264,nonpolar organic solvents,,Diphenylmethane,C$_{13}$H$_{12}$
,,,,605.341,Guanosine diphosphate mannose,C$_{16}$H$_{25}$N$_{5}$O$_{16}$P$_{2}$
,,,,500.593,Tuftsin,C$_{21}$H$_{40}$N$_{8}$O$_{6}$
216-220,,,,,Grubbs' catalyst,C$_{31}$H$_{38}$Cl$_{2}$N$_{2}$ORu
,,,,,Mavacoxib,C$_{16}$H$_{11}$F$_{4}$N$_{3}$O$_{2}$S
12,,257,,,Dodecanal,C$_{12}$H$_{24}$O
8.4,,100.8,miscible,,Formic acid,CH$_{2}$O$_{2}$
,,,,266.25,Forodesine,C$_{11}$H$_{14}$N$_{4}$O$_{4}$
,,,,,Toceranib,C$_{22}$H$_{25}$FN$_{4}$O$_{2}$
,,,,,Ristocetin,C$_{94}$H$_{108}$N$_{8}$O$_{44}$
96-97,,,,,Bis(dicyclohexylphosphino)ethane,C$_{26}$H$_{48}$P$_{2}$
,,,,290.1548,BOB (psychedelic),C$_{11}$H$_{16}$BrNO$_{3}$
10,,103,,,Pinacolone,C$_{6}$H$_{12}$O
,,,,,Taliglucerase alfa,
,,,2.8,268.2359,Ammonium perrhenate,NH$_{4}$ReO$_{4}$
,,,,,Picenadol,C$_{16}$H$_{25}$NO
,,,,,Benzobarbital,C$_{19}$H$_{16}$N$_{2}$O$_{4}$
,,,,,Ketipramine,C$_{19}$H$_{22}$N$_{2}$O
11,1.096,232-234,,162.19,Safrole,C$_{10}$H$_{10}$O$_{2}$
286,,,soluble,256.937,Silver trifluoromethanesulfonate,CF$_{3}$SO$_{3}$Ag
,,,,,Bopindolol,C$_{23}$H$_{28}$N$_{2}$O$_{3}$
64-66,,,,150.13,Phenylglyoxylic acid,C$_{8}$H$_{6}$O$_{3}$
,,,,,Sazetidine A,
2430,12.7,,,259.651,Uranium boride,UB$_{2}$
,1.26,,,479.02,Rhodamine 6G,C$_{28}$H$_{31}$N$_{2}$O$_{3}$Cl
,,,,240.35,Aleph (psychedelic),C$_{12}$H$_{19}$NO$_{2}$S
,,,,,Sulfapyridine,C$_{11}$H$_{11}$N$_{3}$O$_{2}$S
,,,,,Bivalirudin,C$_{98}$H$_{138}$N$_{24}$O$_{33}$
,,,,,Phenindione,C$_{15}$H$_{10}$O$_{2}$
,,,,,Dipivefrine,C$_{19}$H$_{29}$NO$_{5}$
,,,,483.7,Taurolithocholic acid,C$_{26}$H$_{45}$NO$_{5}$S
,,,Miscible,,Acetonitrile,C$_{2}$H$_{3}$N
,,,,366.49,Tetrahydrocortisol,C$_{21}$H$_{34}$O$_{5}$
,,,,,Olodaterol,C$_{21}$H$_{26}$N$_{2}$O$_{5}$
-95,1.06,75,,74.08,Dioxolane,C$_{3}$H$_{6}$O$_{2}$
,,,,,Kaempferol 7-O-glucoside,C$_{21}$H$_{20}$O
,,,,,Carbamazepine,C$_{15}$H$_{12}$N$_{2}$O
,,,,,Fondaparinux,C$_{31}$H$_{43}$N$_{3}$Na$_{10}$O$_{49}$S$_{8}$
50,,,,,Guanidine,CH$_{5}$N$_{3}$
171-175,,,"slightly soluble in water, but well soluble in most organic solvents.",360.31,Rosmarinic acid,C$_{18}$H$_{16}$O$_{8}$
,,,,,NMP-7,C$_{23}$H$_{28}$N$_{2}$O
,1.08,,,,Bis(triethoxysilylpropyl)tetrasulfide,C$_{18}$H$_{42}$O$_{6}$S$_{4}$Si$_{2}$
210,,,,576.62,Green S,C$_{27}$H$_{25}$N$_{2}$NaO$_{7}$S$_{2}$
,,,,,Bococizumab,C$_{6414}$H$_{9918}$N$_{1722}$O$_{2012}$S$_{54}$
,,,,,Tacalcitol,C$_{27}$H$_{44}$O$_{3}$
,,,,,SR-142 948,
,,,,,Lepirudin,C$_{288}$H$_{448}$N$_{80}$O$_{110}$S$_{6}$
,,,,,Hopane,C$_{30}$H$_{52}$
,,,,,Phenylalanine,C$_{9}$H$_{11}$O$_{2}$N
,,,,,Direct Blue 1,C$_{34}$H$_{24}$N$_{6}$Na$_{4}$O$_{16}$S$_{4}$
178,,,,,Brucine,C$_{23}$H$_{26}$N$_{2}$O$_{4}$
143,,,,,Scoparone,C$_{11}$H$_{10}$O$_{4}$
,,,,,Quinapyramine,C17H21N6charge+
,,,,228.109,Titanium ethoxide,C$_{32}$H$_{80}$O$_{16}$Ti$_{4}$
,,134,soluble in water,,Methylhexanamine,C$_{7}$H$_{17}$N
-96.5,,117,Reacts,154.9008,Chromyl chloride,CrO$_{2}$Cl$_{2}$
58.5,2.742,315,28.5,120.06,Sodium bisulfate,NaHSO$_{4}$
,,,,,Tremorine,C$_{12}$H$_{20}$N$_{2}$
,,,,,Caesium auride,CsAu
,,,,,Tiazofurin,C$_{9}$H$_{12}$N$_{2}$O$_{5}$S
,,,,,Methylatropine,C$_{18}$H$_{26}$NO$_{3}$
,,,,466.39,Xeractinol,C$_{21}$H$_{22}$O$_{12}$
,,,,323.3,Pyroglutamyl-histidyl-glycine,C$_{13}$H$_{17}$N$_{5}$O$_{5}$
,,,,,Angiotensinamide,C$_{49}$H$_{70}$N$_{14}$O
,3.354,,Reacts,,Nitrosonium octafluoroxenate(VI),(NO)$_{2}$XeF$_{8}$
,,,,307.197,Deoxycytidine monophosphate,C$_{9}$H$_{14}$N$_{3}$O$_{7}$P
,,,,,Moxastine,C$_{18}$H$_{23}$NO
,,,,175.098,Cobalt(II) thiocyanate,CoS$_{2}$C$_{2}$N$_{2}$
,,,,,Verdamicin,C$_{20}$H$_{39}$N$_{5}$O$_{7}$
,1.047,223,organic solvents,168.663,Neophyl chloride,C$_{10}$H$_{13}$Cl
767,,1767,,350.322,Plutonium(III) chloride,PuCl$_{3}$
,,,,300.3,Confusarin,C$_{17}$H$_{16}$O$_{5}$
,,,,,Indiplon,C$_{20}$H$_{16}$N$_{4}$O$_{2}$S
384,2.47,,,109.794,Sodium tetrafluoroborate,NaBF$_{4}$
,,,,,Prednisone,C$_{21}$H$_{26}$O$_{5}$
,,,,,Dirlotapide,C$_{40}$H$_{33}$F$_{3}$N$_{4}$O$_{3}$
,,,,,Dasatinib,C$_{22}$H$_{26}$ClN$_{7}$O$_{2}$S
,,,,,Protokylol,C$_{18}$H$_{21}$NO$_{5}$
53,2.49,,22,305.885,Sodium trimetaphosphate,Na$_{3}$P$_{3}$O$_{9}$
,,,,,Chlorphentermine,C$_{10}$H$_{14}$ClN
,,,,,Carboxymethyl cellulose,variable
,,,,,L-765 314,
265.3,,,,,Cerevisterol,C$_{26}$H$_{46}$O$_{3}$
,,,,,Aspalathin,C$_{21}$H$_{24}$O
,,,,,Acetorphine,C$_{27}$H$_{35}$NO$_{5}$
125.5,,335,,,Acetosyringone,C$_{10}$H$_{12}$O$_{4}$
177.5,1.42,,0.003,269.12,Dichlorophene,C$_{13}$H$_{10}$Cl$_{2}$O$_{2}$
,,,,,Mannitol,IUPACName(2''R''@comma@3''R''@comma@4''R''@comma@5''R'')-Hexan-1@comma@2@comma@3@comma@4@comma@5@comma@6-hexol
57,,,,,Retinyl acetate,C$_{22}$H$_{32}$O$_{2}$
,,,,434.25,IAEDANS,C$_{14}$H$_{15}$IN$_{2}$O$_{4}$S
110-112,,,,,Arctiin,C$_{27}$H$_{34}$O
1020,4.92,,decomposition,376.33,Gallium(III) selenide,Ga$_{2}$Se$_{3}$
,,,,356.37,Balanophonin,C$_{20}$H$_{20}$O$_{6}$
,,,,,Cefuroxime axetil,
,,,,,A-41988,C$_{28}$H$_{32}$FNO$_{2}$
,,,,,Valienol,C$_{7}$H$_{12}$O$_{5}$
640,,,soluble,92.1128,Calcium cyanide,Ca(CN)$_{2}$
,,,,,Manidipine,C$_{35}$H$_{38}$N$_{4}$O$_{6}$
721,,,reacts,243.95,Ytterbium(II) chloride,YbCl$_{2}$
,,,,,BW A444,
,,,,,LGD-3303,C$_{16}$H$_{14}$ClF$_{3}$N$_{2}$O
,,,,,Epibatidine,C$_{11}$H$_{13}$ClN$_{2}$
600,7.08,,,,Platinum tetrafluoride,F$_{4}$Pt
,,,,684.64904,Heme C,C$_{34}$H$_{36}$O$_{4}$N$_{4}$S$_{2}$Fe
,,,,,Cholestane,C$_{27}$H$_{48}$
,,,,,Dasabuvir,C$_{26}$H$_{27}$N$_{3}$O$_{5}$S
,,,,,Gemcitabine,C$_{9}$H$_{11}$F$_{2}$N$_{3}$O$_{4}$
,,,,,Ketoprofen,C$_{16}$H$_{14}$O$_{3}$
,,,,,MTEP,C$_{11}$H$_{8}$N$_{2}$S
,,,,,Alatrofloxacin,C$_{26}$H$_{25}$F$_{3}$N$_{6}$O$_{5}$
,,,1.05,,Ozone,O$_{3}$
,,,,,Epoetin alfa,
,,,,287.24,Aurantinidin,C$_{15}$H$_{11}$O$^{+}_{6}$
,,,,260.136,Mannose 6-phosphate,C$_{6}$H$_{13}$O$_{9}$P
,,,,,Lysergic acid 2-butyl amide,
97-98,,,,,Tetrachlorvinphos,C$_{10}$H$_{9}$Cl$_{4}$O$_{4}$P
,,,,,Cetrorelix,C$_{70}$H$_{92}$ClN$_{17}$O$_{14}$
247.08,,594.156,0.005429,,Cysmethynil,C$_{25}$H$_{32}$N$_{2}$O
,,,,,Oxoborane,HBO