Name,formula,Property Molar Mass,Property Molar Mass units,Property Melting Point,Property Melting Point units,Property Density,Property Density units,Property Boiling Point,Property Boiling Point units,Property Solubility
Clopenthixol,C$_{22}$H$_{25}$ClN$_{2}$OS,,,,,,,,,
VM (nerve agent),C$_{9}$H$_{22}$NO$_{2}$PS,239.32,g/mol,,,,,,,
Robenidine,C$_{15}$H$_{13}$Cl$_{2}$N$_{5}$,,,,,,,,,
MRS-1706,C$_{27}$H$_{29}$N$_{5}$O$_{5}$,,,,,,,,,
Metabutoxycaine,C$_{17}$H$_{28}$N$_{2}$O$_{3}$,,,,,,,,,
N-Vinylacetamide,C$_{4}$H$_{7}$NO,,,54,$^{\circ}$C,,,96,$^{\circ}$C,soluble
Demecolcine,C$_{21}$H$_{25}$NO$_{5}$,,,,,,,,,
Morphine-6-glucuronide,C$_{23}$H$_{27}$NO$_{9}$,461.46,g/mol,,,,,,,
Ethyl chloroacetate,C$_{4}$H$_{7}$ClO$_{2}$,,,-26,$^{\circ}$C,,,143,$^{\circ}$C,
Copper peptide GHK-Cu,C$_{14}$H$_{24}$N$_{6}$O$_{4}$,340.38,g/mol,,,,,,,130.98
Raffinose,C$_{18}$H$_{32}$O$_{16}$,504.42,g/mol,,,,,,,
Silver sulfate,Ag$_{2}$SO$_{4}$,,,652.2-660,$^{\circ}$C,5.45,g/cm$^{3}$,1085,$^{\circ}$C,0.57
BSTFA,C$_{8}$H$_{18}$F$_{3}$NOSi$_{2}$,,,-10,$^{\circ}$C,,,,,
Levomethorphan,C$_{18}$H$_{25}$NO,,,,,,,,,
Bromhexine,C$_{14}$H$_{20}$Br$_{2}$N$_{2}$,,,,,,,,,
Etoposide,C$_{29}$H$_{32}$O$_{13}$,,,,,,,,,
Acetoguanamine,C$_{4}$N$_{5}$H$_{7}$,,,274,$^{\circ}$C,,,,,
NESS-040C5,C$_{27}$H$_{33}$N$_{3}$OS,,,,,,,,,
Perhexiline,C$_{19}$H$_{35}$N,,,,,,,,,
Indeloxazine,C$_{14}$H$_{17}$NO$_{2}$,,,,,,,,,
BI 224436,,,,,,,,,,
JWH-424,C$_{24}$H$_{22}$BrNO,,,,,,,,,
Hemin,C$_{34}$H$_{32}$ClFeN$_{4}$O$_{4}$,,,,,,,,,
Perfluorononanoic acid,C$_{9}$HF$_{17}$O$_{2}$,464.08,g/mol,59-62,$^{\circ}$C,,,218,$^{\circ}$C,
Aminometradine,C$_{9}$H$_{13}$N$_{3}$O$_{2}$,,,,,,,,,
Oxomemazine,C$_{18}$H$_{22}$N$_{2}$O$_{2}$S,,,,,,,,,
Antimony telluride,Sb$_{2}$Te$_{3}$,,,580,$^{\circ}$C,,,,,
Uranium disulfide,US$_{2}$,302.160,g/mol,,,,,,,
DEET,C$_{12}$H$_{17}$NO,191.27,g/mol,-33,$^{\circ}$C,,,288-292,$^{\circ}$C,
Isobutyryl-CoA,C$_{25}$H$_{42}$N$_{7}$O$_{17}$P$_{3}$S,837.62,g/mol,,,,,,,
Erlotinib,C$_{22}$H$_{23}$N$_{3}$O$_{4}$,,,,,,,,,
Red 2G,C$_{18}$H$_{14}$N$_{2}$Na$_{2}$O$_{7}$S$_{2}$,509.43,g/mol,,,,,,,
Muscarine,C$_{9}$H$_{20}$NO$^{+}_{2}$,174.26,g/mol,,,,,,,
Pinoline,C$_{12}$H$_{14}$N$_{2}$O,,,216,$^{\circ}$C,,,,,
Malotilate,C$_{12}$H$_{16}$O$_{4}$S$_{2}$,,,,,,,,,
Grubbs' catalyst,C$_{43}$H$_{72}$Cl$_{2}$P$_{2}$Ru,,,153,$^{\circ}$C,,,,,
Guaiazulene,C$_{15}$H$_{18}$,,,31-33,$^{\circ}$C,0.976,g/cm$^{3}$,153,$^{\circ}$C,
Chloromethyl chloroformate,C$_{2}$H$_{2}$Cl$_{2}$O$_{2}$,,,,,,,,,
Mesembrine,289.37,,,,,,,,,
Dihydroergocryptine,C$_{32}$H$_{43}$N$_{5}$O$_{5}$,,,,,,,,,
NNK,C$_{10}$H$_{13}$N$_{3}$O$_{2}$,207.23,g/mol,,,,,,,
Ethylphenidate,C$_{15}$H$_{21}$NO$_{2}$,,,,,,,,,
Glycopyrronium bromide,,,,,,,,,,
Ancarolol,C$_{18}$H$_{24}$N$_{2}$O$_{4}$,,,,,,,,,
Sulfiram,C$_{10}$H$_{20}$N$_{2}$S$_{3}$,,,,,,,,,
Doxepin,C$_{19}$H$_{21}$NO,,,,,,,,,
Curcuminoid,C$_{21}$H$_{20}$O$_{6}$,368.38,g/mol,183,$^{\circ}$C,,,,,
Isobenzan,C$_{9}$H$_{4}$Cl$_{8}$O,,,121.3,$^{\circ}$C,1.87,g/cm$^{3}$,,,Practically insoluble
Muscone,C$_{16}$H$_{30}$O,238.40,g/mol,-15,$^{\circ}$C,0.9221,g/cm$^{3}$,328,$^{\circ}$C,
Englitazone,C$_{20}$H$_{19}$NO$_{3}$S,,,,,,,,,
Ceftazidime,C$_{22}$H$_{22}$N$_{6}$O$_{7}$S$_{2}$,,,,,,,,,
Diclazuril,C$_{17}$H$_{9}$Cl$_{3}$N$_{4}$O$_{2}$,,,,,,,,,
Gallium nitride,GaN,83.73,g/mol,>2500,$^{\circ}$C,6.15,g/cm$^{3}$,,,Reacts.
Cobalt(II) cyanide,Co(CN)$_{2}$,110.968,g/mol,280,$^{\circ}$C,1.872,g/cm$^{3}$,,,insoluble
Briakinumab,C$_{6376}$H$_{9874}$N$_{1722}$O$_{1992}$S$_{44}$,,,,,,,,,
Rhenium(IV) oxide,ReO$_{2}$,218.206,g/mol,decomposes at 1000,$^{\circ}$C,11.4,g/cm$^{3}$,,,insoluble
Cannabicyclohexanol,C$_{22}$H$_{36}$O$_{2}$,,,,,,,,,
Vanillin,C$_{8}$H$_{8}$O$_{3}$,,,,,,,285,$^{\circ}$C,10
Thymulin,C$_{33}$H$_{54}$N$_{12}$O$_{15}$,858.85,g/mol,,,,,,,
Lithium methoxide,CH$_{3}$LiO,,,,,,,,,
Beryllium bromide,BeBr$_{2}$,168.820,g/mol,508,$^{\circ}$C,3.465,g/cm$^{3}$,520,$^{\circ}$C,Highly
Lonafarnib,C$_{27}$H$_{31}$Br$_{2}$ClN$_{4}$O$_{2}$,,,,,,,,,
Aminoglutethimide,C$_{13}$H$_{16}$N$_{2}$O$_{2}$,,,,,,,,,
Pyridinium p-toluenesulfonate,C$_{12}$H$_{13}$NO$_{3}$S,,,120,$^{\circ}$C,,,,,
Trazodone,C$_{19}$H$_{22}$ClN$_{5}$O,,,,,,,,,
Imidazenil,C$_{18}$H$_{12}$BrFN$_{4}$O,,,,,,,,,
Copper(I) hydroxide,CuOH,80.55,g/mol,,,,,,,
Doxofylline,C$_{11}$H$_{14}$N$_{4}$O$_{4}$,,,,,,,,,
RJR-2429,C$_{12}$H$_{16}$N$_{2}$,,,,,,,,,
Aristolochene,C$_{15}$H$_{24}$,,,,,,,,,
Ammonium fluoride,NH$_{4}$F,37.037,g/mol,100,$^{\circ}$C,1.009,g/cm$^{3}$,,,45.3
Grandinin,C$_{46}$H$_{34}$O$_{30}$,1066.74,g/mol,,,,,,,
Dimethyl terephthalate,C$_{10}$H$_{10}$O$_{4}$,,,142,$^{\circ}$C,,,288,$^{\circ}$C,
Paracoumaryl alcohol,C$_{9}$H$_{10}$O$_{2}$,,,,,,,,,
Hesperidin,C$_{28}$H$_{34}$O$_{15}$,,,,,,,,,
Nepinalone,C$_{18}$H$_{25}$NO,,,,,,,,,
Gestonorone,C$_{20}$H$_{28}$O$_{3}$,,,,,,,,,
Diprenorphine,C$_{26}$H$_{35}$NO$_{4}$,,,,,,,,,
Niobium dioxide,NbO$_{2}$,124.91,g/mol,1915,$^{\circ}$C,,,,,
Tin(II) oxide,SnO,134.709,g/mol,1080,$^{\circ}$C,6.45,g/cm$^{3}$,,,insoluble
Isobutylene,C$_{4}$H$_{8}$,56.106,g/mol,-140.3,$^{\circ}$C,,,-6.9,$^{\circ}$C,Insoluble
Clobenpropit,C$_{14}$H$_{17}$ClN$_{4}$S,,,,,,,,,
Cantharidic acid,,,,,,,,,,
BAY 73-6691,,,,,,,,,,
Oroxylin A,C$_{16}$H$_{12}$O$_{5}$,284.26,g/mol,,,,,,,
NGD-4715,C$_{19}$H$_{24}$BrN$_{3}$O$_{3}$,,,,,,,,,
AC927,C$_{13}$H$_{19}$N,,,,,,,,,
Cerotic acid,C$_{26}$H$_{52}$O$_{2}$,396.69,g/mol,,,,,,,
Arsenic trisulfide,As$_{2}$S$_{3}$,,,310,$^{\circ}$C,,,707,$^{\circ}$C,
Safranal,C$_{10}$H$_{14}$O,150.21,g/mol,,,0.9734,g/cm$^{3}$,70,$^{\circ}$C,
URB597,C$_{20}$H$_{22}$N$_{2}$O$_{3}$,338.4,g/mol,,,,,,,
Sodium maleonitriledithiolate,C$_{4}$N$_{2}$Na$_{2}$S$_{2}$,186.17,g/mol,,,,,,,
Miyabenol C,C$_{42}$H$_{32}$O$_{9}$,680.69,g/mol,,,,,,,
Molybdenum disilicide,MoSi$_{2}$,152.11,g/mol,2030,$^{\circ}$C,6.26,g/cm$^{3}$,,,
Novec 1230,C$_{6}$F$_{12}$O,,,-108,$^{\circ}$C,1.723,g/cm$^{3}$,49,$^{\circ}$C,
Dihydrotachysterol,C$_{28}$H$_{46}$O,,,,,,,,,
Bifuhalol,C$_{12}$H$_{10}$O$_{7}$,266.20,g/mol,,,,,,,
Tiapride,C$_{15}$H$_{24}$N$_{2}$O$_{4}$S,,,,,,,,,
Staurosporine,C$_{28}$H$_{26}$N$_{4}$O$_{3}$,,,,,,,,,
Zirconium(IV) iodide,ZrI$_{4}$,598.842,g/mol,499,$^{\circ}$C,4.914,g/cm$^{3}$,431,$^{\circ}$C,
Phenyl isothiocyanate,C$_{7}$H$_{5}$NS,135.19,g/mol,-21,$^{\circ}$C,1.1288,g/cm$^{3}$,221,$^{\circ}$C,negligible
Mitoxantrone,C$_{22}$H$_{28}$N$_{4}$O$_{6}$,,,,,,,,,
Magnesium orotate,,,,,,,,,,
Myristicin,C$_{11}$H$_{12}$O$_{3}$,,,,,,,,,
Sodium picosulfate,,,,,,,,,,
Praseodymium(III) sulfide,Pr$_{2}$S$_{3}$,378.00,g/mol,,,,,,,
Erythrulose,C$_{4}$H$_{8}$O$_{4}$,,,,,,,,,Soluble
Citronellal,C$_{10}$H$_{18}$O,154.25,g/mol,,,0.855,g/cm$^{3}$,201-207,$^{\circ}$C,
Clavulanic acid,,,,,,,,,,
BSPP (drug),,,,,,,,,,
Acutifolin A,C$_{20}$H$_{22}$O$_{4}$,,,,,,,,,
Comins' reagent,C$_{7}$H$_{3}$ClF$_{6}$N$_{2}$O$_{4}$S$_{2}$,,,45,$^{\circ}$C,,,,,
Bromoiodomethane,CH$_{2}$BrI,,,,,,,138,$^{\circ}$C,
Gitoformate,C$_{46}$H$_{64}$O$_{19}$,,,,,,,,,
Epigallocatechin gallate,C$_{22}$H$_{18}$O,458.372,g/mol,,,,,,,soluble (33.3-100 g/L)
Lewisite,C$_{2}$H$_{2}$AsCl$_{3}$,207.32,g/mol,-18,$^{\circ}$C,1.89,g/cm$^{3}$,190,$^{\circ}$C,
Alpha 1-antitrypsin,,,,,,,,,,
Oxanorbornadiene,C$_{6}$H$_{6}$O,94.11,g/mol,,,,,,,
Neosalvarsan,C$_{13}$H$_{13}$As$_{2}$N$_{2}$NaO$_{4}$S,466.15,g/mol,,,,,,,
Fumaric acid,C$_{4}$H$_{4}$O$_{4}$,,,287,$^{\circ}$C,1.635,g/cm$^{3}$,,,4.3
Vigabatrin,C$_{6}$H$_{11}$NO$_{2}$,,,,,,,,,
Methylchloroisothiazolinone,C$_{4}$H$_{4}$ClNOS,,,,,1.02,g/cm$^{3}$,,,Miscible
Acipimox,C$_{6}$H$_{6}$N$_{2}$O$_{3}$,,,,,,,,,
Cellulose diacetate,variable,,,,,,,,,
Triptycene,C$_{20}$H$_{14}$,,,252,$^{\circ}$C,,,,,
PF-00446687,C$_{28}$H$_{36}$F$_{2}$N$_{2}$O$_{2}$,,,,,,,,,
Methadone,C$_{21}$H$_{27}$NO,,,,,,,,,
Benzoin,C$_{14}$H$_{12}$O$_{2}$,,,132-137,$^{\circ}$C,1.31,g/cm$^{3}$,344,$^{\circ}$C,Soluble
LY-307 452,,,,,,,,,,
Thiocarlide,C$_{23}$H$_{32}$N$_{2}$O$_{2}$S,,,,,,,,,
JWH-081,C$_{25}$H$_{25}$NO$_{2}$,,,,,,,,,
Adipiplon,C$_{18}$H$_{18}$FN$_{7}$,,,,,,,,,
Cumene,C$_{9}$H$_{12}$,,,-96,$^{\circ}$C,,,152,$^{\circ}$C,negligible
Acetylcholine,C$_{7}$H$_{16}$NO$^{+}_{2}$,,,,,,,,,
Exenatide,C$_{184}$H$_{282}$N$_{50}$O$_{60}$S,,,,,,,,,
Pirenzepine,C$_{19}$H$_{21}$N$_{5}$O$_{2}$,,,,,,,,,
Monosodium methyl arsenate,CH$_{4}$AsNaO$_{3}$,161.95,g/mol,,,,,,,
Mibefradil,C$_{29}$H$_{38}$FN$_{3}$O$_{3}$,,,,,,,,,
Fluminorex,C$_{10}$H$_{9}$F$_{3}$N$_{2}$O,,,,,,,,,
Alpha-Amanitin,C$_{39}$H$_{54}$N$_{10}$O$_{14}$S,918.97,g/mol,,,,,,,
Magnesium laureth sulfate,(C$_{12}$H$_{26}$SO$_{4}$(C$_{2}$H$_{4}$O)$_{n}$)$_{2}$Mg,819.3994,g/mol,,,,,,,
Thioridazine,C$_{21}$H$_{26}$N$_{2}$S$_{2}$,,,,,,,,,
Ifosfamide,C$_{7}$H$_{15}$Cl$_{2}$N$_{2}$O$_{2}$P,,,,,,,,,
P-Coumaric acid glucoside,C$_{15}$H$_{18}$O$_{8}$,326.29,g/mol,,,,,,,
Butallylonal,C$_{11}$H$_{15}$BrN$_{2}$O$_{3}$,,,,,,,,,
Orthocaine,C$_{8}$H$_{9}$NO$_{3}$,,,,,,,,,
Sinomenine,C$_{19}$H$_{23}$NO$_{4}$,,,,,,,,,
Prazosin,C$_{19}$H$_{21}$N$_{5}$O$_{4}$,,,,,,,,,
Alchorneine,C$_{12}$H$_{19}$N$_{3}$O,221.29,g/mol,,,,,,,
Rafoxanide,C$_{19}$H$_{11}$Cl$_{2}$I$_{2}$NO$_{3}$,626.01,g/mol,,,,,,,in oily solutes
Metaldehyde,C$_{8}$H$_{16}$O$_{4}$,176.212,g/mol,246,$^{\circ}$C,1.27,g/cm$^{3}$,sublimes at 110-120,$^{\circ}$C,
Ketotifen,C$_{19}$H$_{19}$NOS,,,,,,,,,
Afegostat,C$_{6}$H$_{13}$NO$_{3}$,,,,,,,,,
Maleimide,C$_{4}$H$_{3}$NO$_{2}$,97.07,g/mol,91-93,$^{\circ}$C,,,,,organic solvents
Brompheniramine,C$_{16}$H$_{19}$BrN$_{2}$,,,,,,,,,
ISRIB,C$_{22}$H$_{24}$Cl$_{2}$N$_{2}$O$_{4}$,,,,,,,,,
Isorenieratene,C$_{40}$H$_{48}$,,,199-200,$^{\circ}$C,,,,,
Bergapten,C$_{12}$H$_{8}$O$_{4}$,,,,,,,,,
Ionone,C$_{13}$H$_{20}$O,192.30,g/mol,-49,$^{\circ}$C,$\alpha$: 0.933,g/cm$^{3}$,126-128,$^{\circ}$C,
Taurocholic acid,C$_{26}$H$_{45}$NO$_{7}$S,515.7058,g/mol,125.0,$^{\circ}$C,,,,,
Chloroform,CHCl$_{3}$,,,-63.5,$^{\circ}$C,1.564,g/cm$^{3}$,61.15,$^{\circ}$C,1.062
Unifiram,C$_{13}$H$_{15}$FN$_{2}$O$_{3}$S,,,,,,,,,
Grandisol,C$_{10}$H$_{18}$O,154.25,g/mol,,,,,50-60,$^{\circ}$C,
Tixocortol,C$_{21}$H$_{30}$O$_{4}$S,,,,,,,,,
Rhodium carbonyl chloride,C$_{4}$O$_{4}$Cl$_{2}$Rh$_{2}$,,,,,,,,,
Thioindigo,C$_{16}$H$_{8}$O$_{2}$S$_{2}$,,,280,$^{\circ}$C,,,,,Insoluble
Bis(pinacolato)diboron,C$_{12}$H$_{24}$B$_{2}$O$_{4}$,,,137-140,$^{\circ}$C,,,,,
EDANS,C$_{12}$H$_{14}$N$_{2}$O$_{3}$S,,,,,,,,,
Darodipine,C$_{19}$H$_{21}$N$_{3}$O$_{5}$,,,,,,,,,
Zacopride,C$_{15}$H$_{20}$ClN$_{3}$O$_{2}$,,,,,,,,,
Tertatolol,C$_{16}$H$_{25}$NO$_{2}$S,,,,,,,,,
Niperotidine,C$_{20}$H$_{26}$N$_{4}$O$_{5}$S,,,,,,,,,
Imidazolidine,C$_{3}$H$_{8}$N$_{2}$,,,,,,,,,
Thiolutin,C$_{8}$H$_{8}$N$_{2}$O$_{2}$S$_{2}$,,,,,,,,,
Tyrocidine,C$_{66}$H$_{87}$N$_{13}$O$_{13}$,,,,,,,,,
Valproate pivoxil,,,,,,,,,,
Cefcapene,C$_{17}$H$_{19}$N$_{5}$O$_{6}$S$_{2}$,,,,,,,,,
Dansyl amide,C$_{12}$H$_{14}$N$_{2}$O$_{2}$S,,,,,,,,,
Glycocholic acid,C$_{26}$H$_{43}$NO$_{6}$,465.631,g/mol,130,$^{\circ}$C,,,,,
Potassium selenate,K$_{2}$SeO$_{4}$,221.2,g/mol,,,,,,,1.07g/ml
Ethylferrocene,C$_{12}$H$_{14}$Fe,,,81,$^{\circ}$C,,,264,$^{\circ}$C,
Dichlorine monoxide,Cl$_{2}$O,86.9054,g/mol,-120.6,$^{\circ}$C,,,2.0,$^{\circ}$C,
AM-938,C$_{27}$H$_{40}$O$_{4}$,,,,,,,,,
Alpha-Pinene,C$_{10}$H$_{16}$,,,-64,$^{\circ}$C,,,155,$^{\circ}$C,Very low
Tris(1 3-dichloro-2-propyl)phosphate,C$_{9}$H$_{15}$Cl$_{6}$O$_{4}$P,,,,,,,,,
Diethylaniline,C$_{10}$H$_{15}$N,,,-38,$^{\circ}$C,,,216,$^{\circ}$C,0.13
Chlorine perchlorate,Cl$_{2}$O$_{4}$,,,-117,$^{\circ}$C,,,20,$^{\circ}$C,Reacts
Diphenylmethylpiperazine,C$_{17}$H$_{20}$N$_{2}$,252.35,g/mol,,,,,,,
S-Adenosyl methionine,C$_{15}$H$_{22}$N$_{6}$O$_{5}$S,398.44,g/mol,,,,,,,
Thioperamide,C$_{15}$H$_{24}$N$_{4}$S,,,,,,,,,
Magnesium sulfate,MgSO$_{4}$,120.366,g/mol,,,2.66,g/cm$^{3}$,,,anhydrous
Iridium tetrafluoride,IrF$_{4}$,268.2109,g/mol,,,,,,,
Molybdenum(III) iodide,MoI$_{3}$,476.65,g/mol,927,$^{\circ}$C,,,,,insoluble
Citatuzumab bogatox,,,,,,,,,,
A-349 821,,,,,,,,,,
Urolithin A,C$_{13}$H$_{8}$O$_{4}$,228.20,g/mol,,,,,,,
Dimeditiapramine,C$_{26}$H$_{37}$NO$_{8}$S$_{2}$,,,,,,,,,
Sudan III,C$_{22}$H$_{16}$N$_{4}$O,352.39,g/mol,199,$^{\circ}$C,,,,,
Iodine-123,chemical_formula$^{123}$I$^{-}$,,,,,,,,,
Hexachlorobutadiene,C$_{4}$Cl$_{6}$,260.76,g/mol,,,,,210-220,$^{\circ}$C,
Oxfendazole,C$_{15}$H$_{13}$N$_{3}$O$_{3}$S,,,,,,,,,
Eckol,C$_{18}$H$_{12}$O$_{9}$,372.28,g/mol,,,,,,,
Sodium oxalate,Na$_{2}$C$_{2}$O$_{4}$,,,260,$^{\circ}$C,,,,,2.69
Calcium lactate,C$_{6}$H$_{10}$CaO$_{6}$,218.22,g/mol,240,$^{\circ}$C,1.494,g/cm$^{3}$,,,7.9
Mersalyl,C$_{13}$H$_{18}$HgNO$_{6}$,,,,,,,,,
Otilonium bromide,,,,,,,,,,
Tolonidine,C$_{10}$H$_{12}$ClN$_{3}$,,,,,,,,,
Magnesium monohydride,MgH,25.313,g/mol,,,,,,,reacts violently
Nicorandil,C$_{8}$H$_{9}$N$_{3}$O$_{4}$,,,,,,,,,
Salicylanilide,C$_{13}$H$_{11}$NO$_{2}$,,,136-138,$^{\circ}$C,,,,,
PSB-10,C$_{16}$H$_{14}$Cl$_{3}$N$_{5}$O,,,,,,,,,
Caesium titanate,Cs$_{2}$TiO$_{3}$,361.71,g/mol,,,,,,,Insoluble
Phenoxybenzamine,C$_{18}$H$_{22}$ClNO,,,,,,,,,
Libivirumab,C$_{6598}$H$_{10232}$N$_{1788}$O$_{2060}$S$_{46}$,,,,,,,,,
Phthalide,C$_{8}$H$_{6}$O$_{2}$,,,75,$^{\circ}$C,,,290,$^{\circ}$C,
Trimethylhexamethylenediamine,C$_{9}$H$_{22}$N$_{2}$,,,127,$^{\circ}$C,0.87,g/cm$^{3}$,232,$^{\circ}$C,
Befloxatone,C$_{15}$H$_{18}$F$_{3}$NO$_{5}$,,,,,,,,,
Cyclazodone,C$_{12}$H$_{12}$N$_{2}$O$_{2}$,,,,,,,,,
Ciclindole,C$_{14}$H$_{18}$N$_{2}$,,,,,,,,,
Mofezolac,C$_{19}$H$_{17}$NO$_{5}$,,,,,,,,,
SRT1460,C$_{26}$H$_{29}$N$_{5}$O$_{4}$S,,,,,,,,,
Dysidenin,C$_{17}$H$_{23}$Cl$_{6}$N$_{3}$O$_{2}$S,,,,,,,,,
Beryllium borohydride,Be(BH$_{4}$)$_{2}$,38.70,g/mol,91.3,$^{\circ}$C,0.604,g/cm$^{3}$,123,$^{\circ}$C,reacts
Almoxatone,C$_{18}$H$_{19}$ClN$_{2}$O$_{3}$,,,,,,,,,
Ergine,C$_{16}$H$_{17}$N$_{3}$O,,,,,,,,,
Iron(II) fumarate,C$_{4}$H$_{2}$FeO$_{4}$,,,280,$^{\circ}$C,2.435,g/cm$^{3}$,,,slightly soluble
Roquefortine C,C$_{22}$H$_{23}$N$_{5}$O$_{2}$,389.5,g/mol,,,,,,,"Soluble in ethanol, methanol, DMF or DMSO"
DBDMH,C$_{5}$H$_{6}$Br$_{2}$N$_{2}$O$_{2}$,,,197-203,$^{\circ}$C,1.36,g/cm$^{3}$,,,0.1
Nemonoxacin,C$_{20}$H$_{25}$N$_{3}$O$_{4}$,,,,,,,,,
Histamine trifluoromethyl toluidide,C$_{19}$H$_{25}$F$_{3}$N$_{4}$O,,,,,,,,,
Docosapentaenoic acid,C$_{22}$H$_{34}$O$_{2}$,330.50416,g/mol,,,,,,,
MBBA,C$_{18}$H$_{21}$NO,,,,,,,,,
Aurin,C$_{19}$H$_{14}$O$_{3}$,,,308,$^{\circ}$C,1.283,g/cm$^{3}$,,,Insoluble
Titanium(II) sulfide,TiS,79.933,g/mol,1780,$^{\circ}$C,,,,,soluble in concentrated acids
Androsterone,C$_{19}$H$_{30}$O$_{2}$,,,,,,,,,
Fluocinolone acetonide,,,,,,,,,,
Idazoxan,C$_{11}$H$_{12}$N$_{2}$O$_{2}$,,,,,,,,,
Acetoacetyl-CoA,C$_{25}$H$_{40}$N$_{7}$O$_{18}$P$_{3}$S,851.609,g/mol,,,,,,,
Xanthotoxol,C$_{11}$H$_{6}$O$_{4}$,202.16,g/mol,,,,,,,
Romidepsin,C$_{24}$H$_{36}$N$_{4}$O$_{6}$S$_{2}$,,,,,,,,,
Ricinoleic acid,C$_{18}$H$_{34}$O$_{3}$,298.461,g/mol,,,0.945,g/cm$^{3}$,,,
Proscillaridin,C$_{30}$H$_{42}$O$_{8}$,,,,,,,,,
Caesium cadmium bromide,CsCdBr$_{3}$,485.028,g/mol,450,$^{\circ}$C,,,,,
Sodium monofluorophosphate,Na$_{2}$PFO$_{3}$,143.95,g/mol,625,$^{\circ}$C,,,,,25
Mesocarb,C$_{18}$H$_{18}$N$_{4}$O$_{2}$,,,,,,,,,
Rifalazil,C$_{32}$H$_{44}$O$_{8}$,,,,,,,,,Very high water solubility around 2000
Lithium iodide,LiI,133.85,g/mol,469,$^{\circ}$C,4.076,g/cm$^{3}$,1171,$^{\circ}$C,151
Pritumumab,C$_{6440}$H$_{9968}$N$_{1708}$O$_{2016}$S$_{42}$,,,,,,,,,
Malachite green,C$_{23}$H$_{25}$ClN$_{2}$(chloride),364.911,g/mol,,,,,,,
Phenthoate,C$_{12}$H$_{17}$O$_{4}$PS$_{2}$,,,17,$^{\circ}$C,,,,,11
Aspartame,C$_{14}$H$_{18}$N$_{2}$O$_{5}$,,,246-247,$^{\circ}$C,1.347,g/cm$^{3}$,,,Sparingly soluble
Brefeldin A,C$_{16}$H$_{24}$O$_{4}$,280.36,g/mol,204-205,$^{\circ}$C,,,,,
Pigment Red 149,C$_{40}$H$_{26}$N$_{2}$O$_{4}$,,,,,,,,,
Tocilizumab,C$_{6428}$H$_{9976}$N$_{1720}$O$_{2018}$S$_{42}$,,,,,,,,,
Ciprofibrate,C$_{13}$H$_{14}$Cl$_{2}$O$_{3}$,,,,,,,,,
Semicarbazide,H$_{2}$NNHC(O)NH$_{2}$,75.08,g/mol,96,$^{\circ}$C,,,,,
Trospium chloride,,,,,,,,,,
Nifenazone,C$_{17}$H$_{16}$N$_{4}$O$_{2}$,,,,,,,,,
Cresol Red,C$_{21}$H$_{17}$NaO$_{5}$S,382.43,g/mol,,,,,,,
Clofoctol,C$_{21}$H$_{26}$Cl$_{2}$O,,,,,,,,,
Permanganate,MnO$^{4-}$,,,,,,,,,
Adrafinil,C$_{15}$H$_{15}$NO$_{3}$S,,,,,,,,,
Rubidium perchlorate,RbClO$_{4}$,184.918,g/mol,281,$^{\circ}$C,,,600,$^{\circ}$C,see chart
Chlorothalonil,C$_{8}$Cl$_{4}$N$_{2}$,,,250,$^{\circ}$C,,,350,$^{\circ}$C,0.06
Perchloric acid,HClO$_{4}$,100.46,g/mol,-17,$^{\circ}$C,1.768,g/cm$^{3}$,203,$^{\circ}$C,miscible
Meclizine,C$_{25}$H$_{27}$ClN$_{2}$,,,,,,,,,
S-Methylmethionine,C$_{6}$H$_{15}$NO$_{2}$S$^{+}$,164.247,g/mol,139,$^{\circ}$C,,,,,
Ramipril,C$_{23}$H$_{32}$N$_{2}$O$_{5}$,,,,,,,,,
FlAsH-EDT2,C$_{24}$H$_{18}$As$_{2}$O$_{5}$S$_{4}$,,,169-172,$^{\circ}$C,,,,,
Ribavirin,C$_{8}$H$_{12}$N$_{4}$O$_{5}$,,,,,,,,,
Trastuzumab,C$_{6470}$H$_{10012}$N$_{1726}$O$_{2013}$S$_{42}$,,,,,,,,,
Drostanolone,C$_{20}$H$_{32}$O$_{2}$,,,,,,,,,
Vofopitant,C$_{21}$H$_{23}$F$_{3}$N$_{6}$O,,,,,,,,,
Mallotojaponin B,C$_{25}$H$_{30}$O$_{8}$,458.50,g/mol,,,,,,,
Benzo(j)fluoranthene,C$_{20}$H$_{12}$,,,165,$^{\circ}$C,1.286,g/cm$_{3}$,,,
Tenatoprazole,C$_{16}$H$_{18}$N$_{4}$O$_{3}$S,,,,,,,,,
Lead(II) sulfate,PbSO$_{4}$,303.26,g/mol,1087,$^{\circ}$C,6.29,g/cm$^{3}$,,,0.0032
Methylcyclopropane,C$_{4}$H$_{8}$,,,-117.2,$^{\circ}$C,0.6912,g/cm$^{3}$,4,$^{\circ}$C,
Propetandrol,C$_{23}$H$_{36}$O$_{3}$,360.53,g/mol,,,,,,,
Farinomalein,C$_{10}$H$_{13}$NO$_{4}$,,,75,$^{\circ}$C,,,384.6,$^{\circ}$C,
Pirandamine,C$_{17}$H$_{23}$NO,,,,,,,,,
Dynorphin B,C$_{74}$H$_{115}$N$_{21}$O$_{17}$,,,,,,,,,
Omapatrilat,C$_{19}$H$_{24}$N$_{2}$O$_{4}$S$_{2}$,,,,,,,,,
Benralizumab,C$_{6492}$H$_{10060}$N$_{1724}$O$_{2028}$S$_{42}$,,,,,,,,,
Tioconazole,C$_{16}$H$_{13}$Cl$_{3}$N$_{2}$OS,,,,,,,,,
Diphenylalanine,C$_{15}$H$_{15}$NO$_{2}$,241.11,g/mol,235,$^{\circ}$C,,,,,
Anemonin,C$_{10}$H$_{8}$O$_{4}$,,,158,$^{\circ}$C,,,535.7,$^{\circ}$C,low
Potassium fumarate,K$_{2}$C$_{4}$H$_{2}$O$_{4}$,,,,,,,,,
Olivetol,C$_{11}$H$_{16}$O$_{2}$,,,40-41,$^{\circ}$C,,,162-164,$^{\circ}$C,
Inotuzumab ozogamicin,,,,,,,,,,
Alefacept,C$_{2306}$H$_{3594}$N$_{610}$O$_{694}$S$_{26}$,,,,,,,,,
Cipemastat,C$_{22}$H$_{36}$N$_{4}$O$_{5}$,436.545,g/mol,,,,,,,
Almasilate,Al$_{2}$H$_{6}$MgO$_{7}$Si$^{+8}_{2}$,,,,,,,,,
Eschenmoser's salt,C$_{3}$H$_{8}$NI,185.01,g/mol,116,$^{\circ}$C,,,,,decomposes
JWH-120,C$_{23}$H$_{21}$NO,,,,,,,,,
Paprika oleoresin,C$_{40}$H$_{56}$O$_{3}$(capsanthin),,,,,,,,,insoluble
N-Methylmorpholine,C$_{5}$H$_{11}$NO,,,-66,$^{\circ}$C,0.92,g/cm$^{3}$,115,$^{\circ}$C,
Methylammonium nitrate,CH$_{6}$N$_{2}$O$_{3}$,94.07,g/mol,,,,,,,
Campestanol,C$_{28}$H$_{50}$O,,,,,,,,,
Coumermycin A1,,,,,,,,,,
Proflazepam,C$_{18}$H$_{16}$ClFN$_{2}$O$_{3}$,,,,,,,,,
Hexahydroxydiphenic acid,C$_{14}$H$_{10}$O$_{10}$,338.22,g/mol,,,,,,,
Atracurium besilate,,,,,,,,,,
Arsenic trifluoride,AsF$_{3}$,131.9168,g/mol,-8.5,$^{\circ}$C,2.666,g/cm$^{3}$,60.4,$^{\circ}$C,decomposes
Olpadronic acid,,,,,,,,,,
Thozalinone,C$_{11}$H$_{12}$N$_{2}$O$_{2}$,,,,,,,,,
Dihydroergotamine,C$_{33}$H$_{37}$N$_{5}$O$_{5}$,,,,,,,,,
Hydroxyquinol,C$_{6}$H$_{6}$O$_{3}$,126.11,g/mol,,,,,,,
Ripasudil,chemical_formulaC$_{15}$H$_{18}$FN$_{3}$O$_{2}$S,,,,,,,,,
Quinolizidine,C$_{9}$H$_{17}$N,,,,,,,,,
Apiin,C$_{26}$H$_{28}$O$_{14}$,,,,,,,,,
BW-723C86,C$_{16}$H$_{18}$N$_{2}$OS,,,,,,,,,
Echitamidine,C$_{20}$H$_{24}$N$_{2}$O$_{3}$,,,,,,,,,
Lerisetron,C$_{18}$H$_{20}$N$_{4}$,,,,,,,,,
Osmium tetroxide,OsO$_{4}$,254.23,g/mol,40.25,$^{\circ}$C,4.9,g/cm$^{3}$,129.7,$^{\circ}$C,5.70
Diphenylmercury,C$_{12}$H$_{10}$Hg,,,121-123,$^{\circ}$C,,,204,$^{\circ}$C,"slightly soluble in ethanol, diethyl ether"
Methyl hypochlorite,CH$_{3}$ClO,,,-120.4,$^{\circ}$C,1.058,g/cm$^{3}$,9.18,$^{\circ}$C,
Taranabant,C$_{27}$H$_{25}$ClF$_{3}$N$_{3}$O$_{2}$,,,,,,,,,
Carbidopa,C$_{10}$H$_{14}$N$_{2}$O$_{4}$,,,,,,,,,
Gilutensin,C$_{17}$H$_{19}$N,,,,,,,,,
Trans-Diptoindonesin B,C$_{42}$H$_{32}$O$_{9}$,,,,,,,,,
Sodium nitroprusside,,,,,,1.72,g/cm$^{3}$,,,100
Gepefrine,C$_{9}$H$_{13}$NO,,,,,,,,,
Benzylbutylbarbiturate,C$_{15}$H$_{18}$N$_{2}$O$_{3}$,,,,,,,,,
Glyphosate,C$_{3}$H$_{8}$NO$_{5}$P,,,184.5,$^{\circ}$C,,,,,
Ammonium pertechnetate,H$_{4}$NO$_{4}$Tc,,,,,,,,,
PEDOT-TMA,C$_{6}$H$_{8}$O,~6000,g/mol,,,,,,,
Urofollitropin,C$_{975}$H$_{1513}$N$_{267}$O$_{304}$S$_{26}$,,,,,,,,,
Naptumomab estafenatox,,,,,,,,,,