Name,formula,Property Molar Mass,Property Molar Mass units,Property Melting Point,Property Melting Point units,Property Density,Property Density units,Property Boiling Point,Property Boiling Point units,Property Solubility
Lithium tetrachloroaluminate,LiAlCl$_{4}$,,,,,,,,,
Procymidone,C$_{13}$H$_{11}$Cl$_{2}$NO$_{2}$,284.138,g/mol,,,,,,,
Benoxaprofen,C$_{16}$H$_{12}$ClNO$_{3}$,,,,,,,,,
Fucophlorethol A,C$_{18}$H$_{14}$O$_{9}$,374.29,g/mol,,,,,,,
Narcobarbital,C$_{11}$H$_{15}$BrN$_{2}$O$_{3}$,,,,,,,,,
Diphenylcyanoarsine,C$_{13}$H$_{10}$AsN,,,,,,,,,
Tetraphenylene,C$_{24}$H$_{16}$,304.39,g/mol,232-235,$^{\circ}$C,,,577.6,$^{\circ}$C,
Acetylfentanyl,C$_{21}$H$_{26}$N$_{2}$O,,,,,,,,,
Monocerin,C$_{16}$H$_{20}$O$_{6}$,308.33,g/mol,,,,,,,
Enflurane,C$_{3}$H$_{2}$ClF$_{5}$O,,,,,,,,,
Profenamine,C$_{19}$H$_{24}$N$_{2}$S,,,,,,,,,
Ethyl cinnamate,C$_{11}$H$_{12}$O$_{2}$,176.21,g/mol,6.5,$^{\circ}$C,1.046,g/cm$^{3}$,271,$^{\circ}$C,
Rintatolimod,C$_{45}$H$_{74}$BNO$_{15}$,,,,,,,,,
Gnetucleistol E,C$_{16}$H$_{16}$O$_{4}$,272.29,g/mol,,,,,,,
Serelaxin,C$_{256}$H$_{408}$N$_{74}$O$_{74}$S$_{8}$,,,,,,,,,
Bis(trimethylsilyl)acetamide,C$_{8}$H$_{21}$NOSi$_{2}$,,,,,,,71,$^{\circ}$C,
Cinnamic acid,C$_{9}$H$_{8}$O$_{2}$,,,133,$^{\circ}$C,1.2475,g/cm$^{3}$,300,$^{\circ}$C,500
Cefoperazone,C$_{25}$H$_{27}$N$_{9}$O$_{8}$S$_{2}$,,,,,,,,,
Cyamelide,H$_{x}$N$_{x}$C$_{x}$O$_{x}$,,,,,2.08,g/cm$^{3}$,,,low
Prochlorperazine,C$_{20}$H$_{24}$ClN$_{3}$S,,,,,,,,,
Trimethylolethane trinitrate,C$_{5}$H$_{9}$N$_{3}$O$_{9}$,,,-3,$^{\circ}$C,1.47,g/cm$^{3}$,,,
Ramucirumab,C$_{6374}$H$_{9864}$N$_{1692}$O$_{1996}$S$_{46}$,,,,,,,,,
Cinepazide,C$_{22}$H$_{31}$N$_{3}$O$_{5}$,,,,,,,,,
Mallotophenone,C$_{21}$H$_{24}$O$_{8}$,404.41,g/mol,,,,,,,
Hydrangeic acid,C$_{15}$H$_{12}$O$_{4}$,,,,,,,,,
Ammonia borane,BNH$_{6}$,,,104,$^{\circ}$C,,,,,
D-Galacturonic acid,C$_{6}$H$_{10}$O$_{7}$,,,159,$^{\circ}$C,,,,,
Dihydrokavain,C$_{14}$H$_{16}$O$_{3}$,232.27,g/mol,,,,,,,
Mucic acid,C$_{6}$H$_{10}$O$_{8}$,,,230,$^{\circ}$C,,,,,
Methylenedioxypyrovalerone,C$_{16}$H$_{21}$NO$_{3}$,,,,,,,,,
Ferrous tartrate,C$_{4}$H$_{4}$FeO$_{6}$,203.92,g/mol,,,,,,,
Propylamphetamine,C$_{12}$H$_{19}$N,,,,,,,,,
Thallium(I) sulfide,Tl$_{2}$S,440.833,g/mol,448,$^{\circ}$C,8.390,g/cm$^{3}$,1367,$^{\circ}$C,
Roflumilast,C$_{17}$H$_{14}$Cl$_{2}$F$_{2}$N$_{2}$O$_{3}$,,,,,,,,,
Guanosine,C$_{10}$H$_{13}$N$_{5}$O$_{5}$,,,,,,,,,
Rubidium nitrate,RbNO$_{3}$,147.473,g/mol,310,$^{\circ}$C,3.11,g/cm$^{3}$,578,$^{\circ}$C,44.28
Phosphamidon,C$_{10}$H$_{19}$ClNO$_{5}$P,,,120-123,$^{\circ}$C,1.2132,g/cm$^{3}$,162,$^{\circ}$C,Miscible
Artesunate,C$_{19}$H$_{28}$O$_{8}$,,,,,,,,,
Pentaerythritol,C$_{5}$H$_{12}$O$_{4}$,,,260.5,$^{\circ}$C,,,276,$^{\circ}$C,5.6
Calcium nitride,Ca$_{3}$N$_{2}$,,,1195,$^{\circ}$C,2.670,g/cm$^{3}$,,,decomposes
Arformoterol,C$_{19}$H$_{24}$N$_{2}$O$_{4}$,,,,,,,,,
Ricasetron,C$_{19}$H$_{27}$N$_{3}$O,,,,,,,,,
Isodesmosine,C$_{24}$H$_{40}$N$_{5}$O$_{8}$,526.603,g/mol,,,,,,,
Rhodizonic acid,C$_{6}$H$_{2}$O$_{6}$,,,130-132,$^{\circ}$C,,,,,
Leptosidin,C$_{16}$H$_{12}$O$_{6}$,,,,,,,,,
Dexlansoprazole,C$_{16}$H$_{14}$F$_{3}$N$_{3}$O$_{2}$S,,,,,,,,,
Oxamniquine,C$_{14}$H$_{21}$N$_{3}$O$_{3}$,,,,,,,,,
Trisulfane,H$_{2}$S$_{3}$,,,,,,,,,
Mabuterol,C$_{13}$H$_{18}$ClF$_{3}$N$_{2}$O,310.74,g/mol,,,,,,,
Nickel(II) oxide,NiO,74.6928,g/mol,1955,$^{\circ}$C,6.67,g/cm$^{3}$,,,negligible
Brentuximab vedotin,,,,,,,,,,
BIM-1,C$_{25}$H$_{24}$N$_{4}$O$_{2}$,,,208-210,$^{\circ}$C,1.3,g/cm$^{3}$,,,
Oxprenolol,C$_{15}$H$_{23}$NO$_{3}$,,,,,,,,,
MME (psychedelic),C$_{13}$H$_{21}$NO$_{3}$,239.311,g/mol,,,,,,,
Mapracorat,C$_{25}$H$_{26}$F$_{4}$N$_{2}$O$_{2}$,,,,,,,,,
Bisulfide,HS$^{-}$,,,,,,,,,
Flunisolide,C$_{24}$H$_{31}$FO$_{6}$,,,,,,,,,
Adenosine monophosphate,C$_{10}$H$_{14}$N$_{5}$O$_{7}$P,347.22,g/mol,178,$^{\circ}$C,,,798.5,$^{\circ}$C,
Pazinaclone,C$_{25}$H$_{23}$ClN$_{4}$O$_{4}$,,,,,,,,,
Chromium(III) sulfide,Cr$_{2}$S$_{3}$,200.19,g/mol,1350,$^{\circ}$C,3.77,g/cm$^{3}$,,,insoluble
Titanium tetrabromide,TiBr$_{4}$,367.483,g/mol,39,$^{\circ}$C,3.25,g/cm$^{3}$,230,$^{\circ}$C,
Diphosphane,H$_{4}$P$_{2}$,,,-99,$^{\circ}$C,,,63.5,$^{\circ}$C,
Copper(II) chloride,CuCl$_{2}$,134.45,g/mol,498,$^{\circ}$C,3.386,g/cm$^{3}$,993,$^{\circ}$C,70.6
Bifemelane,C$_{18}$H$_{23}$NO,,,,,,,,,
SNAP-94847,C$_{29}$H$_{32}$F$_{2}$N$_{2}$O$_{2}$,,,,,,,,,
Deoxyepinephrine,C$_{9}$H$_{13}$NO$_{2}$,167.21,g/mol,188-189,$^{\circ}$C,,,,,
Dantron,C$_{14}$H$_{8}$O$_{4}$,,,,,,,,,
Vanadyl acetylacetonate,C$_{10}$H$_{14}$O$_{5}$V,265.157,g/mol,258,$^{\circ}$C,1.50,g/cm$^{3}$,174,$^{\circ}$C,"CHCl$_{3}$, CH$_{2}$Cl$_{2}$, Benzene, CH$_{3}$OH, CH$_{3}$CH$_{2}$OH"
Tetratriacontanoic acid,C$_{34}$H$_{68}$O$_{2}$,508.902,g/mol,,,0.87,g/cm$^{3}$,,,
Cobalt(II) formate,Co(HCOO)$_{2}$,148.97,g/mol,175,$^{\circ}$C,2.13,g/cm$^{3}$,,,soluble
Ispronicline,C$_{14}$H$_{22}$N$_{2}$O,,,,,,,,,
Sodium perchlorate,NaClO$_{4}$,122.44,g/mol,468,$^{\circ}$C,2.4994,g/cm$^{3}$,482,$^{\circ}$C,209.6
Senecionine,C$_{18}$H$_{25}$NO$_{5}$,,,,,1.25,g/cm$^{3}$,,,
Atevirdine,C$_{21}$H$_{25}$N$_{5}$O$_{2}$,379.46,g/mol,,,,,,,
Bimatoprost,C$_{25}$H$_{37}$NO$_{4}$,,,,,,,,,
Decamethylferrocene,C$_{20}$H$_{30}$Fe,,,291-295,$^{\circ}$C,,,,,
Pethidinic acid,,,,,,,,,,
SB-204070,C$_{19}$H$_{27}$ClN$_{2}$O$_{4}$,,,,,,,,,
Catecholborane,C$_{6}$H$_{5}$BO$_{2}$,119.92,g/mol,12,$^{\circ}$C,,,50,$^{\circ}$C,
Sodium ferrioxalate,Na$_{3}$(Fe(C$_{2}$O$_{4}$)$_{3}$),,,,,,,,,"32.5pts per 100pts solvent, cold water, 182pts per 100pts, boiling water"
WMS-2539,C$_{20}$H$_{22}$FNO$_{2}$,,,,,,,,,
Thiostrepton,C$_{72}$H$_{85}$N$_{19}$O$_{18}$S$_{5}$,1664.83,g/mol,246-256,$^{\circ}$C,,,,,Insoluble
Nitrosonium tetrafluoroborate,NOBF$_{4}$,,,250,$^{\circ}$C,,,,,decomposes
Indorenate,C$_{13}$H$_{16}$N$_{2}$O$_{3}$,,,,,,,,,
Methazole,C$_{9}$H$_{6}$Cl$_{2}$N$_{2}$O$_{3}$,261.061,g/mol,,,,,,,
P-Dimethylaminocinnamaldehyde,C$_{11}$H$_{13}$NO,175.22,g/mol,138,$^{\circ}$C,,,329,$^{\circ}$C,
Anidulafungin,C$_{58}$H$_{73}$N$_{7}$O$_{17}$,,,,,,,,,
Calcium permanganate,Ca(MnO$_{4}$)$_{2}$,277.9493,g/mol,140,$^{\circ}$C,2.49,g/cm$^{3}$,,,tetrahydrate:   331
Hydrogen isocyanide,HNC,27.03,g/mol,,,,,,,
PSN-375 963,,,,,,,,,,
Norethisterone acetate,,,,,,,,,,
Impromidine,C$_{14}$H$_{23}$N$_{7}$S,,,,,,,,,
Theaflavin,C$_{29}$H$_{24}$O$_{12}$,,,,,,,,,
Phenylacetic acid,C$_{8}$H$_{8}$O$_{2}$,136.15,g/mol,76-77,$^{\circ}$C,1.0809,g/cm$^{3}$,265.5,$^{\circ}$C,15
Quinidine,C$_{20}$H$_{24}$N$_{2}$O$_{2}$,,,,,,,,,
Dimethylaminopropylamine,C$_{5}$H$_{14}$N$_{2}$,,,,,,,,,
Racemorphan,C$_{17}$H$_{23}$NO,,,,,,,,,
Daledalin,C$_{19}$H$_{24}$N$_{2}$,,,,,,,,,
Cordycepin,C$_{10}$H$_{13}$N$_{5}$O$_{3}$,,,225.5,$^{\circ}$C,,,,,
Disodium aurothiomalate,,,,,,,,,,
Robinetinidol,C$_{15}$H$_{14}$O$_{6}$,290.26,g/mol,,,,,,,
ELQ-300,C$_{24}$H$_{17}$ClF$_{3}$NO$_{4}$,,,,,,,,,
Monoctanoin,C$_{11}$H$_{22}$O$_{4}$,,,,,,,,,
Pinotin A,C$_{31}$H$_{29}$O$_{14}$+,625.55,g/mol,,,,,,,
Nealbarbital,C$_{12}$H$_{18}$N$_{2}$O$_{3}$,,,,,,,,,
Sulfentrazone,C$_{11}$H$_{10}$Cl$_{2}$F$_{2}$N$_{4}$O$_{3}$S,,,,,,,,,
Adipostatin A,C$_{21}$H$_{36}$O$_{2}$,320.51,g/mol,,,,,,,
Cyclopropanetrione,C$_{3}$O$_{3}$,84.03,g/mol,,,,,,,
Clotrimazole,C$_{22}$H$_{17}$ClN$_{2}$,,,,,,,,,
Ecgonine,C$_{9}$H$_{15}$NO$_{3}$,,,198-199,$^{\circ}$C,1.293$\pm$0.06,g/cm$^{3}$,,,
Lithium cobalt oxide,LiCoO$_{2}$,,,,,,,,,
EGTA (chemical),C$_{14}$H$_{24}$N$_{2}$O$_{10}$,,,241,$^{\circ}$C,,,,,
Annulatin,C$_{16}$H$_{12}$O$_{8}$,332.25,g/mol,,,,,,,
Manganese(II) oxide,MnO,70.9374,g/mol,1945,$^{\circ}$C,5.43,g/cm$^{3}$,,,insoluble
Imetit,C$_{6}$H$_{10}$N$_{4}$S,,,,,,,,,
Piperidione,C$_{9}$H$_{15}$NO$_{2}$,,,,,,,,,
FGI-106,C$_{28}$H$_{38}$N$_{6}$,,,,,,,,,
Tetracosactide,C$_{136}$H$_{210}$N$_{40}$O$_{31}$S,,,,,,,,,
Sodium ricinoleate,C$_{18}$H$_{33}$NaO$_{3}$,,,,,,,,,
Tolfenamic acid,,,,,,,,,,
Inositol,C$_{6}$H$_{12}$O$_{6}$,180.16,g/mol,225-227,$^{\circ}$C,1.752,g/cm$^{3}$,,,
Piperoxan,C$_{14}$H$_{19}$NO$_{2}$,,,,,,,,,
Fluoromethane,CH$_{3}$F,34.03,g/mol,,,,,,,
Fluphenazine,C$_{22}$H$_{26}$F$_{3}$N$_{3}$OS,,,,,,,,,
Fencamine,C$_{20}$H$_{28}$N$_{6}$O$_{2}$,,,,,,,,,
Argon fluorohydride,HArF,59.954,g/mol,-256,$^{\circ}$C,,,,,Unknown
Chlorosilane,H$_{3}$ClSi,,,,,,,,,
Hexobendine,C$_{30}$H$_{44}$N$_{2}$O$_{10}$,,,,,,,,,
Sodium cyanoborohydride,NaBH$_{3}$CN,,,241,$^{\circ}$C,1.20,g/cm$^{3}$,,,212
Isoquercetin,C$_{21}$H$_{20}$O$_{12}$,,,,,,,,,
Anthocyanone A,C$_{14}$H$_{16}$O$_{10}$,,,,,,,,,
Benzo(c)phenanthrene,C$_{18}$H$_{12}$,,,,,1.19,g/cm$^{3}$,436.7,$^{\circ}$C,
Dolasetron,C$_{19}$H$_{20}$N$_{2}$O$_{3}$,,,,,,,,,
Picrinine,C$_{20}$H$_{22}$N$_{2}$O$_{3}$,338.40,g/mol,,,,,,,
Ocrelizumab,C$_{6494}$H$_{9978}$N$_{1718}$O$_{2014}$S$_{46}$,,,,,,,,,
Beta-Eleostearic acid,C$_{18}$H$_{30}$O$_{2}$,,,71.5,$^{\circ}$C,,,,,
Levorphanol,C$_{17}$H$_{23}$NO,,,,,,,,,
Hexaphenylbenzene,C$_{42}$H$_{30}$,,,454-456,$^{\circ}$C,,,,,
Prostaglandin F2$\alpha$,C$_{20}$H$_{34}$O$_{5}$,,,,,,,,,
Allyl cyanide,C$_{3}$H$_{3}$NO,,,-87,$^{\circ}$C,0.834,g/cm$^{3}$,116,$^{\circ}$C,
Metaphit,C$_{18}$H$_{24}$N$_{2}$S,,,,,,,,,
Niobium triselenide,NbSe$_{3}$,1292.425,g/mol,,,,,,,
Chloride,C$_{6}$H$_{3}$N$_{3}$O$_{7}$,,,,,,,,,
Sodium acetrizoate,,,,,,,,,,
Deoxypyridinoline,C$_{18}$H$_{28}$N$_{4}$O$_{7}$,,,,,,,,,
Hexyllithium,C$_{6}$H$_{13}$Li,,,,,,,,,Reacts violently
Sodium aluminium hydride,NaAlH$_{4}$,,,183,$^{\circ}$C,1.24,g/cm$^{3}$,,,
Pinocembrin,C$_{15}$H$_{12}$O$_{4}$,256.25,g/mol,,,,,,,
ClO dimer,Cl$_{2}$O$_{2}$,102.905,g/mol,,,,,,,
Lumefantrine,C$_{30}$H$_{32}$Cl$_{3}$NO,,,,,,,,,
Phenylpyruvic acid,C$_{9}$H$_{8}$O$_{3}$,,,155,$^{\circ}$C,,,,,
Titanium tetraiodide,TiI$_{4}$,555.485,g/mol,150,$^{\circ}$C,4.3,g/cm$^{3}$,377,$^{\circ}$C,
Meclofenoxate,C$_{12}$H$_{16}$ClNO$_{3}$,,,,,,,,,
Violdelphin,C$_{53}$H$_{59}$O$_{30}$+,1176.02,g/mol,,,,,,,
Halothane,C$_{2}$HBrClF$_{3}$,,,,,,,,,
Dalcetrapib,C$_{23}$H$_{35}$NO$_{2}$S,,,,,,,,,
Romiplostim,C$_{2634}$H$_{4086}$N$_{722}$O$_{790}$S$_{18}$,,,,,,,,,
Para Red,C$_{16}$H$_{11}$N$_{3}$O$_{3}$,,,248-252,$^{\circ}$C,,,,,
Violaxanthin,C$_{40}$H$_{56}$O$_{4}$,600.85,g/mol,200,$^{\circ}$C,,,,,
Magnesium sulfide,MgS,56.38,g/mol,2000,$^{\circ}$C,2.84,g/cm$^{3}$,,,decomposes
Octocrylene,C$_{24}$H$_{27}$NO$_{2}$,361.48,g/mol,14,$^{\circ}$C,1.05,g/cm$^{3}$,218,$^{\circ}$C,
Methandriol,C$_{20}$H$_{32}$O$_{2}$,304.47,g/mol,,,,,,,
Acetyldigoxin,C$_{43}$H$_{66}$O$_{15}$,,,,,,,,,
Phenomorphan,C$_{24}$H$_{29}$NO,,,,,,,,,
Stearyl alcohol,C$_{18}$H$_{38}$O,270.49,g/mol,59.4-59.8,$^{\circ}$C,0.812,g/cm$^{3}$,210,$^{\circ}$C,1.1
Bosentan,C$_{27}$H$_{29}$N$_{5}$O$_{6}$S,,,,,,,,,
Uramustine,C$_{8}$H$_{11}$Cl$_{2}$N$_{3}$O$_{2}$,,,,,,,,,
Etidronic acid,,,,,,,,,,
Sodium dithionate,Na$_{2}$S$_{2}$O$_{6}$,206.106,g/mol,190,$^{\circ}$C,2.19,g/cm$^{3}$,267,$^{\circ}$C,6.27
Adalimumab,C$_{6428}$H$_{9912}$N$_{1694}$O$_{1987}$S$_{46}$,,,,,,,,,
Azaleatin,C$_{16}$H$_{12}$O$_{7}$,316.26,g/mol,,,,,,,
L-759 656,,,,,,,,,,
Carbonyldiimidazole,C$_{7}$H$_{6}$N$_{4}$O,,,119,$^{\circ}$C,,,,,Reacts with water
Droxicam,C$_{16}$H$_{11}$N$_{3}$O$_{5}$S,,,,,,,,,
Anisatin,C$_{15}$H$_{20}$O$_{8}$,,,,,,,,,
Isoconazole,C$_{18}$H$_{14}$Cl$_{4}$N$_{2}$O,,,,,,,,,
Trifluoromethanesulfonic acid,CF$_{3}$SO$_{3}$H,150.08,g/mol,-40,$^{\circ}$C,,,162,$^{\circ}$C,Miscible
Ethyl palmitate,FN$_{3}$,,,22-26,$^{\circ}$C,,,377-378,$^{\circ}$C,Insoluble
Lacceroic acid,C$_{32}$H$_{64}$O$_{2}$,480.85,g/mol,,,,,,,
Stryker's reagent,C$_{108}$H$_{96}$Cu$_{6}$P$_{6}$,,,,,,,,,
Tramazoline,C$_{13}$H$_{17}$N$_{3}$,,,,,,,,,
Asoprisnil,C$_{28}$H$_{35}$NO$_{4}$,,,,,,,,,
Chrysosplenetin,C$_{19}$H$_{18}$O$_{8}$,374.34,g/mol,,,,,,,
Triphenylcarbethoxymethylenephosphorane,C$_{22}$H$_{21}$O$_{2}$P,,,124-129,$^{\circ}$C,,,,,
Tabernanthine,C$_{20}$H$_{26}$N$_{2}$O,,,,,,,,,
JWH-148,C$_{24}$H$_{23}$NO,,,,,,,,,
Hexamminecobalt(III) chloride,H$_{18}$N$_{6}$Cl$_{3}$Co,267.48,g/mol,,,,,,,0.26M
Polyetherimide,(C$_{37}$H$_{24}$O$_{6}$N$_{2}$)$_{n}$,,,,,1.27,g/cm$^{3}$,,,
Atiprosin,C$_{20}$H$_{29}$N$_{3}$,,,,,,,,,
Procyclidine,C$_{19}$H$_{30}$ClNO,,,,,,,,,
Nifurzide,C$_{12}$H$_{8}$N$_{4}$O$_{6}$S,,,,,,,,,
Thiothinone,C$_{8}$H$_{11}$NOS,,,,,,,,,
Doxylamine,C$_{17}$H$_{22}$N$_{2}$O,,,,,,,,,
Bis(chloroethyl) ether,C$_{4}$H$_{8}$Cl$_{2}$O,,,,,,,,,Negligible
Pipenzolate,C$_{22}$H$_{28}$NO$_{3}$,,,,,,,,,
Pipobroman,C$_{10}$H$_{16}$Br$_{2}$N$_{2}$O$_{2}$,,,,,,,,,
Scillavone A,C$_{18}$H$_{16}$O$_{7}$,344.31,g/mol,,,,,,,
Monensin,C$_{36}$H$_{62}$O$_{11}$,670.871,g/mol,104,$^{\circ}$C,,,,,3x10$^{-6}$ g/dm$^{3}$ (20 $^{\circ}$C)
Hypochlorous acid,HOCl,52.46,g/mol,,,,,,,Soluble
U-50488,C$_{19}$H$_{26}$Cl$_{2}$N$_{2}$O,,,,,,,,,
Amprenavir,C$_{25}$H$_{35}$N$_{3}$O$_{6}$S,,,,,,,,,
Michler's ketone,C$_{17}$H$_{20}$N$_{2}$O,,,173,$^{\circ}$C,,,,,
EA-3834,C$_{17}$H$_{25}$NO$_{3}$,,,,,,,,,
Barium oxalate,BaC$_{2}$O$_{4}$,225.346,g/mol,400,$^{\circ}$C,2.658,g/cm$^{3}$,,,0.9290
Oxalyl fluoride,C$_{2}$F$_{2}$O$_{2}$,94.017,g/mol,-3,$^{\circ}$C,,,26.6,$^{\circ}$C,
Physalaemin,C$_{58}$H$_{84}$N$_{14}$O$_{16}$S,1265.44,g/mol,,,,,,,
Ataluren,C$_{15}$H$_{9}$FN$_{2}$O$_{3}$,284.24,g/mol,,,,,,,
Solanine,C$_{45}$H$_{73}$NO$_{15}$,,,271-273,$^{\circ}$C,,,,,
Tricetin,C$_{15}$H$_{10}$O$_{7}$,302.23,g/mol,,,,,,,
Acetanilide,C$_{8}$H$_{9}$NO,,,114.3,$^{\circ}$C,1.219,g/cm$^{3}$,304,$^{\circ}$C,<0.56
Tetramethylammonium chloride,C$_{4}$H$_{12}$NCl,109.60,g/mol,425,$^{\circ}$C,1.17,g/cm$^{3}$,,,Soluble
Americium(III) chloride,AmCl$_{3}$,,,715,$^{\circ}$C,,,850,$^{\circ}$C,
Vosaroxin,C$_{18}$H$_{19}$N$_{5}$O$_{4}$S,,,,,1.5$\pm$0.1,g/cm$^{3}$,,,
Aloracetam,C$_{11}$H$_{16}$N$_{2}$O$_{2}$,,,,,,,,,
Fluvoxamine,C$_{15}$H$_{21}$F$_{3}$N$_{2}$O$_{2}$,,,,,,,,,
Discodermolide,C$_{33}$H$_{55}$NO$_{8}$,593.79,g/mol,112-113,$^{\circ}$C,,,,,
Chromium(II) hydride,CrH$_{2}$,54.0040,g/mol,,,,,,,
PCAA,C$_{17}$H$_{25}$NO$_{2}$,275.386,g/mol,,,,,,,
Resveratroloside,C$_{20}$H$_{22}$O$_{8}$,,,,,,,,,
Imatinib,C$_{29}$H$_{31}$N$_{7}$O,,,,,,,,,
Perfluoroisobutene,C$_{4}$F$_{8}$,200.030,g/mol,,,,,7.0,$^{\circ}$C,
Benzo(ghi)perylene,C$_{22}$H$_{12}$,,,278,$^{\circ}$C,1.378,g/cm$^{3}$,500,$^{\circ}$C,
Niobium(IV) chloride,NbCl$_{4}$,234.718,g/mol,Dec. 800,$^{\circ}$C,3.2,g/cm$^{3}$,,,Reacts
Nicotinyl alcohol,,,,,,,,,,
Dihydromorin,C$_{15}$H$_{12}$O$_{7}$,304.25,g/mol,,,,,,,
Dexelvucitabine,C$_{9}$H$_{10}$FN$_{3}$O$_{3}$,227.19,g/mol,,,,,,,
Mezepine,C$_{18}$H$_{22}$N$_{2}$,,,,,,,,,
Strontium aluminate,SrAl$_{2}$O$_{4}$,205.58,g/mol,,,,,,,
Potassium silicate,K$_{2}$O$_{3}$Si,,,,,,,,,
Procyanidin B3,C$_{30}$H$_{26}$O$_{12}$,578.52,g/mol,,,,,,,
Zinc chlorate,Zn(ClO$_{3}$)$_{2}$,232.29,g/mol,60,$^{\circ}$C,2.15,g/cm$^{3}$,,,200
Perdesonide,C$_{25}$H$_{32}$O$_{6}$F$_{2}$,,,,,,,,,
Pelargonidin,C$_{15}$H$_{11}$O$^{+}_{5}$,271.24,g/mol,,,,,,,
Ruthenium hexafluoride,RuF$_{6}$,215.07,g/mol,54,$^{\circ}$C,,,,,
Demoxepam,C$_{15}$H$_{11}$ClN$_{2}$O$_{2}$,,,,,,,,,
MEE (psychedelic),C$_{14}$H$_{23}$NO$_{3}$,,,,,,,,,
Potassium superoxide,KO$_{2}$,,,560,$^{\circ}$C,,,,,decomposes
Silver fulminate,AgCNO,149.885,g/mol,,,3.938,g/cm$^{3}$,,,
Benzamidine,C$_{7}$H$_{8}$N$_{2}$,120.15,g/mol,,,,,,,
Benzylmercapturic acid,C$_{12}$H$_{15}$NO$_{3}$S,253.32,g/mol,163,$^{\circ}$C,,,462,$^{\circ}$C,very soluble
Zirconium(II) hydride,ZrH$_{2}$,93.240,g/mol,,,5.60,g/cm$^{3}$,,,insoluble
F-15 599,,,,,,,,,,
Delta-Cadinol,C$_{15}$H$_{26}$O,222.37,g/mol,138-139,$^{\circ}$C,,,,,
Metaterol,C$_{11}$H$_{17}$NO$_{2}$,,,,,,,,,
Acenaphthene,C$_{12}$H$_{10}$,,,93.4,$^{\circ}$C,1.024,g/cm$^{3}$,279,$^{\circ}$C,0.4
Tribendimidine,C$_{28}$H$_{32}$N$_{6}$,,,,,,,,,
Bromfenac,C$_{15}$H$_{12}$BrNO$_{3}$,,,,,,,,,
RU-58642,C$_{15}$H$_{11}$F$_{3}$N$_{4}$O$_{2}$,,,,,,,,,
Falecalcitriol,C$_{27}$H$_{38}$F$_{6}$O$_{3}$,,,,,,,,,
Performic acid,CH$_{2}$O$_{3}$,,,-18,$^{\circ}$C,,,50,$^{\circ}$C,
Galactose 1-phosphate,C$_{6}$H$_{13}$O$_{9}$P,,,,,,,,,
Zafirlukast,C$_{31}$H$_{33}$N$_{3}$O$_{6}$S,,,,,,,,,
Mitragynine,C$_{23}$H$_{30}$N$_{2}$O$_{4}$,,,,,,,,,
Cyanuric fluoride,C$_{3}$F$_{3}$N$_{3}$,135.047,g/mol,-38,$^{\circ}$C,1.574,g/cm$^{3}$,74,$^{\circ}$C,
Dioxirane,CH$_{2}$O$_{2}$,46.03,g/mol,,,,,,,
WAY-100 135,,,,,,,,,,
Pyrrolysine,C$_{12}$H$_{21}$N$_{3}$O$_{3}$,255.313,g/mol,,,,,,,
Melarsomine,C$_{13}$H$_{21}$AsN$_{8}$S$_{2}$,,,,,,,,,
AG 489,C$_{26}$H$_{47}$N$_{7}$O$_{2}$,,,,,,,,,
Bis(trimethylsilyl)sulfide,C$_{6}$H$_{18}$Si$_{2}$S,,,,,,,163,$^{\circ}$C,
Tremelimumab,C$_{6500}$H$_{9974}$N$_{1726}$O$_{2026}$S$_{52}$,,,,,,,,,
Tropacocaine,C$_{15}$H$_{19}$NO$_{2}$,,,,,,,,,
Pemetrexed,C$_{20}$H$_{21}$N$_{5}$O$_{6}$,,,,,,,,,
Tellurium tetrabromide,TeBr$_{4}$,447.22,g/mol,388,$^{\circ}$C,,,,,
Gentiobiose,C$_{12}$H$_{22}$O$_{11}$,342.30,g/mol,190,$^{\circ}$C,,,,,
Serotonin,C$_{10}$H$_{12}$N$_{2}$O,,,167.7,$^{\circ}$C,,,416$\pm$ 30,$^{\circ}$C,slightly soluble
Clocinizine,C$_{26}$H$_{27}$ClN$_{2}$,,,,,,,,,
Ethyl tert-butyl ether,C$_{6}$H$_{14}$O,,,-94,$^{\circ}$C,0.7364,g/cm$^{3}$,69-71,$^{\circ}$C,1.2
Piperidine,C$_{5}$H$_{11}$N,,,-7,$^{\circ}$C,,,106,$^{\circ}$C,miscible
Amylmetacresol,C$_{12}$H$_{18}$O,,,,,,,,,
Aluminium triethoxide,C$_{6}$H$_{15}$AlO$_{3}$,,,140,$^{\circ}$C,1.142,g/cm$^{3}$,320,$^{\circ}$C,reacts violently
Lobeglitazone,C$_{24}$H$_{24}$N$_{4}$O$_{5}$S,,,,,,,,,
Threonine,C$_{4}$H$_{9}$NO$_{3}$,,,,,,,,,"H2O g/dl) 10.6(30$^{\circ}$),14.1(52$^{\circ}$),19.0(61$^{\circ}$"
Gallium(II) selenide,GaSe,148.69,g/mol,960,$^{\circ}$C,5.03,g/cm$^{3}$,,,
Combretastatin A-1,C$_{18}$H$_{20}$O$_{6}$,,,,,,,,,
Trimethylsilylacetylene,C$_{5}$H$_{10}$Si,,,,,,,53,$^{\circ}$C,
NAN-190,C$_{23}$H$_{27}$N$_{3}$O$_{3}$,,,,,,,,,
Hydroxymethylfurfural,C$_{6}$H$_{6}$O$_{3}$,126.11,g/mol,30-34,$^{\circ}$C,1.29,g/cm$^{3}$,114-116,$^{\circ}$C,
Triacontanol,C$_{30}$H$_{62}$O,438.81,g/mol,87,$^{\circ}$C,,,,,Insoluble
Nafion,C$_{7}$HF$_{13}$O$_{5}$S.C$_{2}$F$_{4}$,,,,,,,,,
Peramivir,C$_{15}$H$_{28}$N$_{4}$O$_{4}$,,,,,,,,,
Beclabuvir,chemical_formulaC$_{36}$H$_{45}$N$_{5}$O$_{5}$S,,,,,,,,,
Eculizumab,C$_{27}$H$_{33}$N$_{3}$O$_{6}$S,,,,,,,,,
Benzo(c)thiophene,C$_{8}$H$_{6}$S,,,,,1.187,g/cm$^{3}$,,,
Catalpic acid,C$_{18}$H$_{30}$O$_{2}$,302.45,g/mol,44,$^{\circ}$C,,,,,
O-Toluic acid,C$_{8}$H$_{8}$O$_{2}$,136.2,g/mol,104-105,$^{\circ}$C,1.06,g/cm$^{3}$,259,$^{\circ}$C,
Potassium phthalimide,C$_{8}$H$_{4}$KNO$_{2}$,185.221,g/mol,> 300,$^{\circ}$C,,,,,"Soluble in water,"
Isoxaprolol,C$_{19}$H$_{26}$N$_{2}$O$_{3}$,,,,,,,,,
Naboctate,C$_{33}$H$_{53}$NO$_{3}$,,,,,,,,,
Levobunolol,C$_{17}$H$_{25}$NO$_{3}$,,,,,,,,,
Habenariol,C$_{22}$H$_{26}$O$_{7}$,402.44,g/mol,,,,,,,
Etofamide,C$_{19}$H$_{20}$Cl$_{2}$N$_{2}$O$_{5}$,,,,,,,,,
Apocynin,C$_{9}$H$_{10}$O$_{3}$,166.17,g/mol,115,$^{\circ}$C,,,,,
Tamsulosin,C$_{20}$H$_{28}$N$_{2}$O$_{5}$S,,,,,,,,,
Potassium tetraphenylborate,C$_{24}$H$_{20}$BK,,,,,,,,,
MPM (psychedelic),C$_{14}$H$_{23}$NO$_{3}$,253.337,g/mol,,,,,,,
Terbogrel,C$_{23}$H$_{27}$N$_{5}$O$_{2}$,,,,,,,,,
Ethylene,C$_{2}$H$_{4}$,28.05,g/mol,-169.2,$^{\circ}$C,,,-103.7,$^{\circ}$C,3.5
Hexamethyldisilane,Si$_{2}$C$_{6}$H$_{18}$,,,,,0.715,g/cm$^{3}$,,,
Pyoverdine,C$_{56}$H$_{88}$N$_{18}$O$_{22}$,,,,,,,,,
Iotroxic acid,,,,,,,,,,
Desmethylcitalopram,C$_{19}$H$_{19}$FN$_{2}$O,,,,,,,,,
Strontium peroxide,SrO$_{2}$,119.619,g/mol,215,$^{\circ}$C,,,,,slightly soluble
Aclidinium bromide,,,,,,,,,,
Carboplatin,C$_{6}$H$_{12}$N$_{2}$O$_{4}$Pt,,,,,,,,,
Gallium arsenide,GaAs,144.645,g/mol,1238,$^{\circ}$C,5.3176,g/cm$^{3}$,,,insoluble
Mesterolone,C$_{20}$H$_{32}$O$_{2}$,,,,,,,,,
Tamoxifen,C$_{26}$H$_{29}$NO,,,,,,,,,
Chlorpropham,C$_{10}$H$_{12}$ClNO$_{2}$,,,41-42,$^{\circ}$C,1.18,g/cm$^{3}$,,,
Digoxigenin,C$_{23}$H$_{34}$O$_{5}$,390.51,g/mol,,,,,,,
Myristic acid,C$_{14}$H$_{28}$O$_{2}$,,,54.4,$^{\circ}$C,1.03,g/cm$^{3}$,326.2,$^{\circ}$C,13
Xylamidine,C$_{19}$H$_{24}$N$_{2}$O$_{2}$,,,,,,,,,
Alpine borane,C$_{18}$H$_{31}$B,,,,,,,> 55,$^{\circ}$C,
Bepotastine,C$_{21}$H$_{25}$ClN$_{2}$O$_{3}$,,,,,,,,,
Coomassie Brilliant Blue,C$_{45}$H$_{44}$N$_{3}$NaO$_{7}$S$_{2}$(Sodiumsalt),825.97,g/mol,,,,,,,"Insoluble in cold, slightly soluble in hot (bright red blue)"
Dihydrouracil,C$_{4}$H$_{6}$N$_{2}$O$_{2}$,,,,,,,,,
Meclofenamic acid,,,,,,,,,,
Propiolic acid,C$_{3}$H$_{2}$O$_{2}$,70.05,g/mol,9,$^{\circ}$C,1.1325,g/cm$^{3}$,144,$^{\circ}$C,