Name,formula,Property Molar Mass,Property Molar Mass units,Property Melting Point,Property Melting Point units,Property Density,Property Density units,Property Boiling Point,Property Boiling Point units,Property Solubility
Fostedil,C$_{18}$NO$_{3}$PS,,,,,,,,,
Peroxymonosulfuric acid,H$_{2}$SO$_{5}$,,,,,,,,,
Triaziquone,C$_{12}$H$_{13}$N$_{3}$O$_{2}$,,,,,,,,,
Harmol,C$_{12}$H$_{10}$N$_{2}$O,198.22,g/mol,,,,,,,
Ectocarpene,C$_{11}$H$_{16}$,,,,,,,,,
Santin (flavonol),C$_{18}$H$_{16}$O$_{7}$,344.31,g/mol,,,,,,,
Cuscohygrine,C$_{13}$H$_{24}$N$_{2}$O,224.34,g/mol,,,,,,,
Glaucine,C$_{21}$H$_{25}$NO$_{4}$,,,,,,,,,
AL-37350A,C$_{14}$H$_{18}$N$_{2}$O,,,,,,,,,
Cirsilineol,C$_{18}$H$_{16}$O$_{7}$,,,,,,,,,
Eprozinol,C$_{22}$H$_{30}$N$_{2}$O$_{2}$,,,,,,,,,
Valoneic acid,21H$_{14}$O$_{13}$,474.32,g/mol,,,,,,,
Fosaprepitant,C$_{23}$H$_{22}$F$_{7}$N$_{4}$O$_{6}$P,,,,,,,,,
Clonazepam,C$_{15}$H$_{10}$ClN$_{3}$O$_{3}$,,,,,,,,,
Ethanol (data page),C$_{2}$H$_{6}$O,,,-114,$^{\circ}$C,0.789,g/cm$^{3}$,78.37,$^{\circ}$C,
Gold(I) sulfide,Au$_{2}$S,425.998,g/mol,,,,,,,Insoluble
CP-809101,C$_{15}$H$_{17}$ClN$_{4}$O,,,,,,,,,
Dextromoramide,C$_{25}$H$_{32}$N$_{2}$O$_{2}$,,,,,,,,,
Talipexole,C$_{10}$H$_{15}$N$_{3}$S,,,,,,,,,
Europium barium titanate,BaEuO$_{4}$Ti,,,,,,,,,
Alosetron,C$_{17}$H$_{18}$N$_{4}$O,,,,,,,,,
Dinotefuran,C$_{7}$H$_{14}$N$_{4}$O$_{3}$,,,,,,,,,39.83
Red fuming nitric acid,HNO$_{3}$+NO$_{2}$,,,,,,,120.5,$^{\circ}$C,miscible in water
Pentedrone,C$_{12}$H$_{17}$NO,,,,,,,,,
Aminorex,C$_{9}$H$_{10}$N$_{2}$O,,,,,,,,,
Acetylferrocene,(Fe(C$_{5}$H$_{4}$COCH$_{3}$)(C$_{5}$H$_{5}$)),228.07,g/mol,81-83,$^{\circ}$C,,,161-163,$^{\circ}$C,"Insoluble in water, soluble in most organic solvents"
Silver molybdate,Ag$_{2}$MoO$_{4}$,375.67.77,g/mol,483,$^{\circ}$C,,,,,slightly soluble
Nonabine,C$_{25}$H$_{33}$NO$_{2}$,,,,,,,,,
Methorphan,C$_{18}$H$_{25}$NO,,,,,,,,,
Guanoxabenz,C$_{8}$H$_{8}$Cl$_{2}$N$_{4}$O,247.08,g/mol,,,,,,,
Methylenedioxyhydroxyethylamphetamine,C$_{12}$H$_{17}$NO$_{3}$,223.271,g/mol,,,,,,,
Phenylethanolamine,C$_{8}$H$_{11}$NO,137.18,g/mol,56-57,$^{\circ}$C,,,157-160,$^{\circ}$C,soluble
Tetramethylammonium hydroxide,C$_{4}$H$_{13}$NO,,,67,$^{\circ}$C,~ 1.015,g/cm$^{3}$,,,high
Meta-Chlorophenylpiperazine,C$_{10}$H$_{13}$ClN$_{2}$,,,,,,,,,
Tetrazolium chloride,C$_{19}$H$_{15}$ClN$_{4}$,334.8,g/mol,,,,,,,
N-Butyllithium,C$_{4}$H$_{9}$Li,,,-76,$^{\circ}$C,,,,,Reaction
Mesulfen,C$_{14}$H$_{12}$S$_{2}$,,,,,,,,,
Nemonapride,C$_{21}$H$_{26}$ClN$_{3}$O$_{2}$,,,,,,,,,
Phosacetim,C$_{14}$H$_{13}$Cl$_{2}$N$_{2}$O$_{2}$PS,,,,,,,,,
Triadimefon,C$_{14}$H$_{16}$ClN$_{3}$O$_{2}$,,,82,$^{\circ}$C,1.22,g/cm$^{3}$,,,64
Vanillyl alcohol,IrO$_{4}$,,,,,,,,,
Alnusiin,C$_{41}$H$_{26}$O$_{26}$,934.63,g/mol,,,,,,,
Malvalic acid,C$_{18}$H$_{32}$O$_{2}$,,,,,,,,,
Cefalexin,C$_{16}$H$_{17}$N$_{3}$O$_{4}$S,,,,,,,,,
Vorapaxar,C$_{29}$H$_{33}$FN$_{2}$O$_{4}$,,,,,,,,,
Adipamide,C$_{6}$H$_{12}$N$_{2}$O$_{2}$,,,220,$^{\circ}$C,,,,,4.4
Thiamine triphosphate,C$_{12}$H$_{19}$N$_{4}$O$_{10}$P$_{3}$S,,,,,,,,,
Ulo$\beta$sol,C$_{22}$H$_{27}$ClF$_{2}$O$_{4}$,,,,,,,,,
Leptomycin,C$_{33}$H$_{48}$O$_{6}$,,,,,,,,,
Methallenestril,C$_{18}$H$_{22}$O$_{3}$,,,,,,,,,
Bisphenol S,C$_{12}$H$_{10}$O$_{4}$S,,,245-250,$^{\circ}$C,1.3663,g/cm$^{3}$,,,insoluble
Butamirate,C$_{18}$H$_{29}$NO$_{3}$,,,,,,,,,
PyBOP,C$_{18}$H$_{28}$N$_{6}$OP$_{2}$F$_{6}$,,,150,$^{\circ}$C,,,,,
RTI-31,C$_{16}$H$_{20}$ClNO$_{2}$,,,,,,,,,
Triethylgallium,C$_{6}$H$_{15}$Ga,156.9,g/mol,-82.3,$^{\circ}$C,,,143,$^{\circ}$C,Reacts
Gold pentafluoride,AuF$_{5}$,291.959,g/mol,60,$^{\circ}$C,,,,,Decomposes
Capsidiol,C$_{15}$H$_{24}$O$_{2}$,236.35,g/mol,,,,,,,
Racemoramide,C$_{25}$H$_{32}$N$_{2}$O$_{2}$,,,,,,,,,
Chlorophyll b,C$_{55}$H$_{70}$MgO$_{6}$N$_{4}$,,,125,$^{\circ}$C,,,,,Insoluble
Thiethylperazine,C$_{22}$H$_{29}$N$_{3}$S$_{2}$,,,,,,,,,
Arsenic pentafluoride,AsF$_{5}$,,,-79.8,$^{\circ}$C,,,-52.8,$^{\circ}$C,
AM-630,C$_{23}$H$_{25}$IN$_{2}$O$_{3}$,,,,,,,,,
Moxisylyte,C$_{16}$H$_{25}$NO$_{3}$,,,,,,,,,
Glycineamide ribonucleotide,C$_{7}$H$_{15}$N$_{2}$O$_{8}$P,286.18,g/mol,,,,,,,
Potassium tetrachloroplatinate,K$_{2}$PtCl$_{4}$,415.09,g/mol,265,$^{\circ}$C,3.38,g/cm$^{3}$,,,0.93
Delphinine,C$_{33}$H$_{45}$NO$_{9}$,,,197-199,$^{\circ}$C,,,,,
Alrestatin,C$_{14}$H$_{9}$NO$_{4}$,,,,,,,,,
Ethanol,C$_{2}$H$_{6}$O,,,-114,$^{\circ}$C,0.789,g/cm$^{3}$,78.37,$^{\circ}$C,
Pyridostigmine,C$_{9}$H$_{13}$N$_{2}$O$_{2}$,,,,,,,,,
Crotyl alcohol,C$_{4}$H$_{8}$O,72.10,g/mol,,,0.8454,g/cm$^{3}$,121.2,$^{\circ}$C,
RTI-32,C$_{17}$H$_{23}$NO$_{2}$,,,,,,,,,
Vat Green 1,C$_{36}$H$_{20}$O$_{4}$,,,,,,,,,
Chrysoeriol,C$_{16}$H$_{12}$O$_{6}$,300.26,g/mol,,,,,,,
Mecasermin,C$_{331}$H$_{512}$N$_{94}$O$_{101}$S$_{7}$,,,,,,,,,
Menadione,C$_{11}$H$_{8}$O$_{2}$,,,105-107,$^{\circ}$C,,,304.5,$^{\circ}$C,Insoluble
Indole,C$_{8}$H$_{7}$N,117.15,g/mol,52-54,$^{\circ}$C,,,253-254,$^{\circ}$C,0.19
Serlopitant,C$_{29}$H$_{28}$F$_{7}$NO$_{2}$,,,,,,,,,
Fluorenylmethyloxycarbonyl chloride,C$_{15}$H$_{11}$ClO$_{2}$,,,62-64,$^{\circ}$C,,,,,
Flubromazepam,C$_{15}$H$_{10}$BrFN$_{2}$O,,,,,,,,,
Thorium(IV) iodide,ThI$_{4}$,739.656,g/mol,570,$^{\circ}$C,,,837,$^{\circ}$C,
Oleamide,C$_{18}$H$_{35}$NO,,,70,$^{\circ}$C,0.879,g/cm$^{3}$,,,Insoluble
Barium iodate,Ba(IO$_{3}$)$_{2}$,505.15,g/mol,580,$^{\circ}$C,,,,,
Emodin,C$_{15}$H$_{10}$O$_{5}$,,,256-257,$^{\circ}$C,,,,,
Fenquizone,C$_{14}$H$_{12}$ClN$_{3}$O$_{3}$S,,,,,,,,,
Gallium(III) fluoride,GaF$_{3}$,126.718,g/mol,800,$^{\circ}$C,4.47,g/cm$^{3}$,1000,$^{\circ}$C,0.0002
Cadmium selenide,CdSe,,,,,,,,,
Neocarzinostatin,C$_{35}$H$_{33}$NO$_{12}$,659.64,g/mol,,,,,,,
Sophorose,C$_{12}$H$_{22}$O$_{11}$,342.30,g/mol,,,,,,,
Girisopam,C$_{18}$H$_{17}$ClN$_{2}$O$_{2}$,,,,,,,,,
Actinorhodin,C$_{32}$H$_{26}$O$_{14}$,,,,,,,,,
Allyl chloride,C$_{3}$H$_{5}$Cl,,,-135,$^{\circ}$C,,,45,$^{\circ}$C,0.36
Astatine monoiodide,AtI,336.904,g/mol,,,,,,,
Tetramesityldiiron,C$_{36}$H$_{44}$Fe$_{2}$,,,,,1.19,g/cm$^{3}$,,,
Abscisic acid,C$_{15}$H$_{20}$O$_{4}$,,,163,$^{\circ}$C,,,458.7,$^{\circ}$C,
Melam (chemistry),C$_{6}$H$_{9}$N$_{11}$,235.21,g/mol,,,,,,,insoluble
Trinitrotoluene,C$_{7}$H$_{5}$N$_{3}$O$_{6}$,,,80.35,$^{\circ}$C,1.654,g/cm$^{3}$,240.0,$^{\circ}$C,0.13
Cobalt sulfide,CoS(varied),90.9982,g/mol,1195,$^{\circ}$C,5.45,g/cm$^{3}$,,,0.00038
Guacetisal,C$_{16}$H$_{14}$O$_{5}$,,,,,,,,,
Estrone sulfate,C$_{18}$H$_{22}$O$_{5}$S,350.43,g/mol,,,,,,,
Dinitrogen trioxide,N$_{2}$O$_{3}$,76.01,g/mol,-100.7,$^{\circ}$C,,,3.5,$^{\circ}$C,very soluble
Allicin,C$_{6}$H$_{10}$OS$_{2}$,,,<25,$^{\circ}$C,,,,,
Selenium dioxide,SeO$_{2}$,110.96,g/mol,340,$^{\circ}$C,,,350,$^{\circ}$C,10.16
AM-6545,C$_{26}$H$_{23}$Cl$_{2}$N$_{5}$O$_{3}$S,,,,,,,,,
Sergliflozin etabonate,,,,,,,,,,
Ammonium hydrosulfide,H$_{5}$NS,51.111,g/mol,,,1.17,g/cm$^{3}$,56.6,$^{\circ}$C,Miscible
BP-897,C$_{26}$H$_{31}$N$_{3}$O$_{2}$,,,,,,,,,
Ranirestat,C$_{17}$H$_{11}$BrFN$_{3}$O$_{4}$,,,,,,,,,
Azaspirodecanedione,C$_{9}$H$_{13}$NO$_{2}$,167.21,g/mol,,,,,,,
Caesium lithium borate,CsLiB$_{6}$O$_{10}$,364.71,g/mol,,,,,,,
Germanium disulfide,GeS$_{2}$,,,840,$^{\circ}$C,,,1530,$^{\circ}$C,0.45
Thyrotropin-releasing hormone,,,,,,,,,,
Almagate,chemical_formulaAl$_{2}$Mg$_{6}$(OH)$_{14}$(CO$_{3}$)$_{2}$$\cdot$4H$_{2}$O,,,,,,,,,
Trimethylsilyl chloride,C$_{3}$H$_{9}$SiCl,108.64,g/mol,-40,$^{\circ}$C,,,57,$^{\circ}$C,reacts
Tantalum carbide,TaC,192.96,g/mol,3850-3880,$^{\circ}$C,14.3-14.65,g/cm$^{3}$,4780-5470,$^{\circ}$C,Insoluble
Bropirimine,C$_{10}$H$_{8}$BrN$_{3}$O,,,,,,,,,
HHTDD,C$_{6}$H$_{4}$N$_{12}$O$_{14}$,,,,,,,,,
Potassium gluconate,,,,180,$^{\circ}$C,,,,,
Chloroethane,C$_{2}$H$_{5}$Cl,,,-138.7,$^{\circ}$C,0.921,g/cm$^{3}$,12.27,$^{\circ}$C,0.447
Tisopurine,C$_{5}$H$_{4}$N$_{4}$S,,,,,,,,,
Pilsicainide,C$_{17}$H$_{24}$N$_{2}$O,,,,,,,,,
Chlorine trifluoride,ClF$_{3}$,,,-76.34,$^{\circ}$C,,,11.75,$^{\circ}$C,Reacts violently
Cerium oxalate,C$_{6}$Ce$_{2}$O$_{12}$,,,,,,,,,Slightly soluble
U-92 016-A,,,,,,,,,,
O-Acetylpsilocin,C$_{14}$H$_{18}$N$_{2}$O$_{2}$,,,172,$^{\circ}$C,,,,,
N $\alpha$-Diethylphenylethylamine,C$_{12}$H$_{19}$N,,,,,,,,,
Budralazine,C$_{14}$H$_{16}$N$_{4}$,,,,,,,,,
Tedisamil,C$_{19}$H$_{32}$N$_{2}$,,,,,,,,,
Phenylpiperazine,C$_{10}$H$_{14}$N$_{2}$,162.23,g/mol,18.8,$^{\circ}$C,,,287.2,$^{\circ}$C,insoluble
Selectfluor,C$_{7}$H$_{14}$B$_{2}$ClF$_{9}$N$_{2}$,354.26,g/mol,,,,,,,
Morpheridine,C$_{20}$H$_{30}$N$_{2}$O$_{3}$,,,,,,,,,
Pentylone,C$_{13}$H$_{17}$NO$_{3}$,,,,,,,,,
Chlorothiazide,C$_{7}$H$_{6}$ClN$_{3}$O$_{4}$S$_{2}$,,,,,,,,,
Azetidine-2-carboxylic acid,C$_{4}$H$_{7}$NO$_{2}$,101.104,g/mol,215,$^{\circ}$C,1.275,g/cm$^{3}$,242,$^{\circ}$C,5.0
Promazine,C$_{17}$H$_{20}$N$_{2}$S,,,,,,,,,
Cyromazine,C$_{6}$H$_{10}$N$_{6}$,166.19,g/mol,219-222,$^{\circ}$C,,,,,
Hydrangenol,C$_{15}$H$_{12}$O$_{4}$,256.25,g/mol,,,,,,,
Ocriplasmin,C$_{1214}$H$_{1890}$N$_{338}$O$_{348}$S$_{14}$,,,,,,,,,
Naled,(CH$_{3}$O)$_{2}$P(O)OCHBrCBrCl$_{2}$,380.8,g/mol,,,,,,,
Amifloxacin,C$_{16}$H$_{19}$FN$_{4}$O$_{3}$,334.3,g/mol,,,,,,,
Bibenzonium bromide,,,,,,,,,,
N-(1-Naphthyl)ethylenediamine,C$_{12}$H$_{14}$N$_{2}$,,,,,,,,,30
Benocyclidine,C$_{19}$H$_{25}$NS,,,,,,,,,
Butyronitrile,C$_{4}$H$_{7}$N,,,,,,,,,0.033
Dibutyltryptamine,C$_{18}$H$_{28}$N$_{2}$,,,186,$^{\circ}$C,,,,,
Laninamivir,C$_{13}$H$_{22}$N$_{4}$O$_{7}$,,,,,,,,,
Pentifylline,C$_{13}$H$_{20}$N$_{4}$O$_{2}$,,,,,,,,,
Indium trihydride,InH$_{3}$,,,,,,,,,
Amiloride,C$_{6}$H$_{8}$ClN$_{7}$O,,,,,,,,,
Difloxacin,C$_{21}$H$_{19}$F$_{2}$N$_{3}$O$_{3}$,,,,,,,,,
Steganacin,C$_{24}$H$_{24}$O$_{9}$,456.44,g/mol,,,,,,,
Chromium(III) oxide,Cr$_{2}$O$_{3}$,151.9904,g/mol,2435,$^{\circ}$C,5.22,g/cm$^{3}$,4000,$^{\circ}$C,insoluble
Sulfamazone,C$_{23}$H$_{24}$N$_{6}$O$_{7}$S$_{2}$,,,,,,,,,
Carasinol B,C$_{56}$H$_{44}$O$_{13}$,924.94,g/mol,,,,,,,
Niobium(V) ethoxide,C$_{10}$H$_{25}$NbO$_{5}$,,,5,$^{\circ}$C,,,203,$^{\circ}$C,N/A
Sodium tetrathionate,Na$_{2}$S$_{4}$O$_{6}$,306.2665,g/mol,,,,,,,30.6
Neuraminic acid,C$_{9}$H$_{17}$NO$_{8}$,267.233,g/mol,,,,,,,
Kaempferide,C$_{16}$H$_{12}$O$_{6}$,300.26,g/mol,,,,,,,
Levodropropizine,C$_{13}$H$_{20}$N$_{2}$O$_{2}$,,,,,,,,,
Ergovaline,C$_{29}$H$_{35}$N$_{5}$O$_{5}$,,,,,,,,,
Isopropyl iodide,C$_{3}$H$_{7}$I,,,,,,,,,Miscible
Cycloguanil,C$_{11}$H$_{14}$ClN$_{5}$,,,,,,,,,
Nickel tetracarbonyl,Ni(CO)$_{4}$,170.73,g/mol,-17.2,$^{\circ}$C,1.319,g/cm$^{3}$,43,$^{\circ}$C,.018
Alprazolam,C$_{17}$H$_{13}$ClN$_{4}$,,,,,,,,,
Cyclopentanepentone,C$_{5}$O$_{5}$,,,,,,,,,
Homoeriodictyol,C$_{16}$H$_{14}$O$_{6}$,,,,,,,,,
Benzothiophene,C$_{8}$H$_{6}$S,,,32,$^{\circ}$C,1.15,g/cm$^{3}$,221,$^{\circ}$C,
Roxindole,C$_{23}$H$_{26}$N$_{2}$O,,,,,,,,,
Alpha-Methyldopamine,C$_{9}$H$_{13}$NO$_{2}$,,,,,,,,,
Selenium oxydichloride,SeOCl$_{2}$,165.87,g/mol,10.9,$^{\circ}$C,,,177.2,$^{\circ}$C,
Lactacystin,C$_{15}$H$_{24}$N$_{2}$O$_{7}$S,,,,,,,,,
Callistephin,C$_{21}$H$_{21}$O$^{+}_{10}$,433.38,g/mol,,,,,,,
Vanadium carbide,VC,62.953,g/mol,2810,$^{\circ}$C,5.77,g/cm$^{3}$,,,insoluble
Tin telluride,SnTe,246.31,g/mol,790,$^{\circ}$C,6.445,g/cm$^{3}$,,,
Carvedilol,C$_{24}$H$_{26}$N$_{2}$O$_{4}$,,,,,,,,,
Sufentanil,C$_{22}$H$_{30}$N$_{2}$O$_{2}$S,,,,,,,,,
Calcium monohydride,CaH,41.085899,g/mol,,,,,,,reacts violently
Chlorogenic acid,C$_{16}$H$_{18}$O$_{9}$,,,207,$^{\circ}$C,1.28,g/cm$^{3}$,,,
Gelsemine,C$_{20}$H$_{22}$N$_{2}$O$_{2}$,,,,,,,,,
Ammonium iron(II) sulfate,(NH$_{4}$)$_{2}$Fe(SO$_{4}$)$_{2}$.6H$_{2}$O,,,100,$^{\circ}$C,,,,,
Delavirdine,C$_{22}$H$_{28}$N$_{6}$O$_{3}$S,,,,,,,,,
Platinum(II) chloride,PtCl$_{2}$,265.99,g/mol,581,$^{\circ}$C,,,,,insoluble
Guanoxan,C$_{10}$H$_{13}$N$_{3}$O$_{2}$,,,,,,,,,
Potassium adipate,K$_{2}$C$_{6}$H$_{8}$O$_{4}$,222.322,g/mol,,,,,,,
Hydroxide,OH$^{-}$,,,,,,,,,
GSK-189 254,,,,,,,,,,
Diphenyl ether,C$_{12}$H$_{10}$O,,,25-26,$^{\circ}$C,1.08,g/cm$^{3}$,121,$^{\circ}$C,Insoluble
Domperidone,C$_{22}$H$_{24}$ClN$_{5}$O$_{2}$,,,,,,,,,
Poly(hydridocarbyne),(HC)N,,,decomposes @ 100,$^{\circ}$C,,,,,
Totarol,C$_{20}$H$_{30}$O,,,128-132,$^{\circ}$C,,,,,
Captafol,C$_{10}$H$_{9}$Cl$_{4}$NO$_{2}$S,,,,,,,,,0.0001%
Oxygen difluoride,OF$_{2}$,53.9962,g/mol,-223.8,$^{\circ}$C,1.90,g/cm$^{3}$,-144.75,$^{\circ}$C,
Celecoxib,C$_{17}$H$_{14}$F$_{3}$N$_{3}$O$_{2}$S,,,,,,,,,
Fusaric acid,C$_{10}$H$_{13}$NO$_{2}$,179.21572,g/mol,97-98,$^{\circ}$C,,,,,
Grape reaction product,C$_{23}$H$_{27}$N$_{3}$O$_{15}$S,,,,,,,,,
Eicosapentaenoic acid,C$_{20}$H$_{30}$O$_{2}$,302.451,g/mol,,,,,,,
Rhodium(II) acetate,C$_{8}$H$_{12}$O$_{8}$Rh$_{2}$,441.99,g/mol,>100,$^{\circ}$C,1.126,g/cm$^{3}$,,,
Apronal,C$_{9}$H$_{16}$N$_{2}$O$_{2}$,,,,,,,,,
Tungsten(VI) oxytetrafluoride,WOF$_{4}$,275.83,g/mol,1006,$^{\circ}$C,5.07,g/cm$^{3}$,1086,$^{\circ}$C,reacts
Trifluoromethanesulfonyl azide,CF$_{3}$N$_{3}$O$_{2}$S,,,,,,,,,insoluble
Tetrahydrocannabinolic acid,,,,,,,,,,
Iron oxychloride,ClFeO,,,,,,,,,
Dichlorine trioxide,Cl$_{2}$O$_{3}$,118.903,g/mol,explodes below 0,$^{\circ}$C,,,,,
TGN1412,C$_{14}$H$_{13}$N$_{5}$O$_{5}$S$_{2}$,,,,,,,,,
Niobium carbide,NbC,104.917,g/mol,3490,$^{\circ}$C,7.820,g/cm$^{3}$,,,
Perfluoromethyldiethylamine,C$_{5}$F$_{13}$N,,,,,,,,,
Damascenine,C$_{10}$H$_{13}$NO$_{3}$,195.2,g/mol,,,,,,,
Potassium ferrioxalate,K$_{3}$[Fe(C$_{2}$O$_{4}$)$_{3}$](anhydrous),437.20,g/mol,230,$^{\circ}$C,2.13,g/cm$^{3}$,,,
Phenylisobutylamine,C$_{10}$H$_{15}$N,,,,,,,,,
Riluzole,C$_{8}$H$_{5}$F$_{3}$N$_{2}$OS,,,,,,,,,
Benzisoxazole,C$_{7}$H$_{5}$NO,,,,,1.18,g/cm$^{3}$,35-38,$^{\circ}$C,
Monatepil,C$_{28}$H$_{30}$FN$_{3}$OS,,,,,,,,,
AM-1220,C$_{26}$H$_{26}$N$_{2}$O,,,,,,,,,
Morazone,C$_{23}$H$_{27}$N$_{3}$O$_{2}$,,,,,,,,,
JWH-184,C$_{25}$H$_{25}$N,,,,,,,,,
HMX,C$_{4}$H$_{8}$N$_{8}$O$_{8}$,296.155,g/mol,276-286,$^{\circ}$C,,,,,
Tiropramide,C$_{28}$H$_{41}$N$_{3}$O$_{3}$,,,,,,,,,
Bupranolol,C$_{14}$H$_{22}$ClNO$_{2}$,,,,,,,,,
Enviomycin,C$_{25}$H$_{43}$N$_{13}$O$_{10}$,,,,,,,,,
Salicylmethylecgonine,C$_{17}$H$_{21}$NO$_{5}$,,,,,,,,,
Isoguvacine,C$_{6}$H$_{9}$NO$_{2}$,,,,,,,,,
Uranium trioxide,UO$_{3}$,286.29,g/mol,,,5.5-8.7,g/cm$^{3}$,,,Partially soluble
Morindone,C$_{15}$H$_{10}$O$_{5}$,270.2369,g/mol,,,,,,,
Gallium(II) telluride,GaTe,197.32,g/mol,824,$^{\circ}$C,,,,,
Macitentan,C$_{19}$H$_{20}$Br$_{2}$N$_{6}$O$_{4}$S,,,,,,,,,
Combretastatin A-4 phosphate,,,,,,,,,,
Nickel(II) hydroxide,Ni(OH)$_{2}$,92.724,g/mol,230,$^{\circ}$C,4.10,g/cm$^{3}$,,,0.013
Adaprolol,C$_{26}$H$_{39}$NO$_{4}$,,,,,,,,,
Lagochilin,C$_{20}$H$_{36}$O$_{5}$,356.495,g/mol,,,,,,,
PRX-08066,C$_{19}$H$_{17}$ClFN$_{5}$S,,,,,,,,,
Diiodotyrosine,C$_{9}$H$_{9}$I$_{2}$NO$_{3}$,432.982,g/mol,,,,,,,
Metralindole,C$_{15}$H$_{17}$N$_{3}$O,,,,,,,,,
Methylmethaqualone,C$_{17}$H$_{16}$N$_{2}$O,,,,,,,,,
Manganese(III) oxide,Mn$_{2}$O$_{3}$,157.8743,g/mol,888,$^{\circ}$C,4.5,g/cm$^{3}$,,,0.00504
Levophenacylmorphan,C$_{24}$H$_{27}$NO$_{2}$,,,,,,,,,
SKF-81 297,,,,,,,,,,
Dimethylamphetamine,C$_{11}$H$_{17}$N,,,,,,,,,
Saccharic acid,C$_{6}$H$_{10}$O$_{8}$,,,,,,,,,Insoluble in water
Indoramin,C$_{22}$H$_{25}$N$_{3}$O,,,,,,,,,
Pederin,C$_{25}$H$_{45}$NO$_{9}$,,,,,,,,,
Cycloundecane,C$_{11}$H$_{22}$,154.29,g/mol,,,,,,,
Ranelic acid,C$_{12}$H$_{10}$N$_{2}$O$_{8}$S,,,,,,,,,
Solabegron,C$_{23}$H$_{23}$ClN$_{2}$O$_{3}$,,,,,,,,,
Zinc nitride,Zn$_{3}$N$_{2}$,224.15,g/mol,,,,,,,insoluble (decomposes)
Nafarelin,C$_{66}$H$_{83}$N$_{17}$O$_{13}$,,,,,,,,,
Barium cyanide,Ba(CN)$_{2}$,189.362,g/mol,600,$^{\circ}$C,,,,,18
Fialuridine,C$_{9}$H$_{10}$FIN$_{2}$O$_{5}$,,,,,,,,,
Flumizole,C$_{18}$H$_{15}$F$_{3}$N$_{2}$O$_{2}$,,,,,,,,,
Tocainide,C$_{11}$H$_{16}$N$_{2}$O,,,,,,,,,
Tantalum pentafluoride,TaF$_{5}$,275.95,g/mol,96.8,$^{\circ}$C,,,229.5,$^{\circ}$C,decomposes
Sorbitan tristearate,C$_{60}$H$_{114}$O$_{8}$,963.54,g/mol,,,,,,,
Troglitazone,C$_{24}$H$_{27}$NO$_{5}$S,,,,,,,,,
Nitroscanate,C$_{13}$H$_{8}$N$_{2}$O$_{3}$S,,,,,,,,,
Daunorubicin,C$_{27}$H$_{29}$NO$_{10}$,,,,,,,,,
Vicianin,C$_{19}$H$_{25}$O$_{10}$,427.40,g/mol,,,,,,,
Barium perchlorate,Ba(ClO$_{4}$)$_{2}$,336.228,g/mol,505,$^{\circ}$C,3.2,g/cm$^{3}$,,,66.48
Thymopentin,C$_{30}$H$_{49}$N$_{9}$O$_{9}$,,,,,,,,,
Lysine,C$_{6}$H$_{14}$N$_{2}$O$_{2}$,,,,,,,,,1.5
Samarium(III) fluoride,SmF$_{3}$,207.36,g/mol,1306,$^{\circ}$C,,,2427,$^{\circ}$C,Insoluble
Sulprostone,C$_{18}$H$_{23}$NO$_{4}$,,,,,,,,,
Methylmalonic acid,C$_{4}$H$_{6}$O$_{4}$,118.088,g/mol,,,,,,,
Anilinium chloride,C$_{6}$H$_{8}$ClN,,,199-202,$^{\circ}$C,1.2215,g/cm$^{3}$,245,$^{\circ}$C,1070
Thiocyanatoiron,CFeH$_{10}$NO$_{5}$S,,,,,,,,,
Bromochlorodifluoromethane,CBrClF$_{2}$,165.36,g/mol,-159.5,$^{\circ}$C,1.799,g/cm$^{3}$,-3.7,$^{\circ}$C,
Ruthenocene,C$_{10}$H$_{10}$Ru,231.26,g/mol,195-200,$^{\circ}$C,1.86,g/cm$^{3}$,278,$^{\circ}$C,"Insoluble in water, soluble in most organic solvents"
L-741 626,,,,,,,,,,
Cyclohexane,C$_{6}$H$_{12}$,84.16,g/mol,6.47,$^{\circ}$C,,,80.74,$^{\circ}$C,Immiscible
Melarsoprol,C$_{12}$H$_{15}$AsN$_{6}$OS$_{2}$,,,,,,,,,
Piminodine,C$_{23}$H$_{30}$N$_{2}$O$_{2}$,,,,,,,,,
Bactoprenol,C$_{55}$H$_{92}$O,,,,,,,,,
Lubeluzole,C$_{22}$H$_{25}$F$_{2}$N$_{3}$O$_{2}$S,,,,,,,,,
Anethole trithione,,,,,,,,,,
Tulathromycin,C$_{41}$H$_{79}$N$_{3}$O$_{12}$,,,,,,,,,
Clopidol,C$_{7}$H$_{7}$Cl$_{2}$NO,,,,,,,,,
Norbornene,C$_{7}$H$_{10}$,,,42,$^{\circ}$C,,,96,$^{\circ}$C,
Potassium tartrate,C$_{4}$H$_{4}$K$_{2}$O$_{6}$,226.268,g/mol,,,1.984,g/cm$^{3}$,,,
Tilorone,C$_{25}$H$_{34}$N$_{2}$O$_{3}$,,,,,,,,,
Potassium cyanide,KCN,65.12,g/mol,634.5,$^{\circ}$C,1.52,g/cm$^{3}$,1625,$^{\circ}$C,41
Ammonium bicarbonate,NH$_{5}$CO$_{3}$,79.056,g/mol,41.9,$^{\circ}$C,1.586,g/cm$^{3}$,,,11.9
GBLD-345,C$_{21}$H$_{21}$N$_{5}$O$_{2}$,,,,,,,,,
Desformylflustrabromine,C$_{16}$H$_{21}$BrN$_{2}$,,,,,,,,,
Thioglycolic acid,C$_{2}$H$_{4}$O$_{2}$S,,,-16,$^{\circ}$C,1.32,g/cm$^{3}$,96,$^{\circ}$C,miscible
Semagacestat,C$_{19}$H$_{27}$N$_{3}$O$_{4}$,,,,,,,,,
Tris(triphenylphosphine)rhodium carbonyl hydride,C$_{55}$H$_{46}$OP$_{3}$Rh,,,,,,,,,
Afimoxifene,C$_{26}$H$_{29}$NO$_{2}$,,,,,,,,,
Kendomycin,C$_{29}$H$_{42}$O$_{6}$,486.64,g/mol,,,,,,,
Cinnamtannin B1,C$_{45}$H$_{36}$O$_{18}$,864.75,g/mol,,,,,,,
Idalopirdine,C$_{20}$H$_{19}$F$_{5}$N$_{2}$O,,,,,,,,,
Genipin,C$_{11}$H$_{14}$O$_{5}$,226.226,g/mol,,,,,,,
Deltamethrin,C$_{22}$H$_{19}$Br$_{2}$NO$_{3}$,,,98,$^{\circ}$C,,,300,$^{\circ}$C,
Amitriptylinoxide,C$_{20}$H$_{23}$NO,,,,,,,,,
Topotecan,C23H23N3O5}$$\cdot$HCl,,,,,,,,,
Quercetin,C$_{15}$H$_{10}$O$_{7}$,302.236,g/mol,316,$^{\circ}$C,1.799,g/cm$^{3}$,,,Practically insoluble in water
Tybamate,C$_{13}$H$_{26}$N$_{2}$O$_{4}$,,,,,,,,,
Cyclandelate,C$_{17}$H$_{24}$O$_{3}$,,,,,,,,,
Lithium sulfate,NaVO$_{3}$,109.94,g/mol,859,$^{\circ}$C,2.221,g/cm$^{3}$,1377,$^{\circ}$C,monohydrate:   34.9
Ethanethiol,C$_{2}$H$_{6}$S,,,-148,$^{\circ}$C,,,35,$^{\circ}$C,0.7% (20$^{\circ}$C)
Dibenzo-1 4-dioxin,C$_{12}$H$_{8}$O$_{2}$,,,122,$^{\circ}$C,,,283.5,$^{\circ}$C,0.901
Pentafluoroethane,C$_{2}$HF$_{5}$,120.02,g/mol,-103.0,$^{\circ}$C,,,-48.5,$^{\circ}$C,
Arachidyl alcohol,C$_{20}$H$_{42}$O,,,64,$^{\circ}$C,,,372,$^{\circ}$C,1.51
Kaempferitrin,C$_{27}$H$_{30}$O$_{14}$,578.52,g/mol,,,,,,,
D-DOPA,C$_{9}$H$_{11}$NO$_{4}$,197.19,g/mol,,,,,,,
Losartan,C$_{22}$H$_{23}$ClN$_{6}$O,,,,,,,,,
Lipoxin,C$_{20}$H$_{32}$O$_{5}$,352.46508,g/mol,,,,,,,
Elopiprazole,C$_{23}$H$_{22}$FN$_{3}$O,,,,,,,,,
HBTU,C$_{11}$H$_{16}$N$_{5}$OPF$_{6}$,,,200,$^{\circ}$C,,,,,
Aprotinin,C$_{284}$H$_{432}$N$_{84}$O$_{79}$S$_{7}$,,,,,,,,,
Trichodermin,C$_{17}$H$_{24}$O$_{4}$,292.37,g/mol,,,,,,,
M-Phenylenediamine,C$_{6}$H$_{8}$N$_{2}$,,,64-66,$^{\circ}$C,,,282-284,$^{\circ}$C,42.9
ACPD,C$_{7}$H$_{11}$NO$_{4}$,,,,,,,,,
Hexaoxotricyclobutabenzene,C$_{12}$O$_{6}$,,,,,,,,,
Sodium permanganate,NaMnO$_{4}$,141.9254,g/mol,36,$^{\circ}$C,1.972,g/cm$^{3}$,,,90
Zosuquidar,C$_{32}$H$_{31}$F$_{2}$N$_{3}$O$_{2}$,,,,,,,,,
Bamifylline,C$_{20}$H$_{27}$N$_{5}$O$_{3}$,,,,,,,,,
Isobutylidenediurea,C$_{6}$H$_{14}$N$_{4}$O$_{2}$,,,,,,,,,low
Cholecalciferol,C$_{27}$H$_{44}$O,384.64,g/mol,83-86,$^{\circ}$C,,,496.4,$^{\circ}$C,
Dimetotiazine,C$_{19}$H$_{25}$N$_{3}$O$_{2}$S$_{2}$,,,,,,,,,
O-2050,C$_{23}$H$_{31}$NO$_{4}$S,,,,,,,,,
Palmitoyl-CoA,C$_{37}$H$_{66}$N$_{7}$O$_{17}$P$_{3}$S,1004.94,g/mol,,,,,,,
Sodium bifluoride,NaHF$_{2}$,,,160,$^{\circ}$C,2.08,g/cm$^{3}$,,,