Name,formula,Property Molar Mass,Property Molar Mass units,Property Melting Point,Property Melting Point units,Property Density,Property Density units,Property Boiling Point,Property Boiling Point units,Property Solubility
Cyclopropyl cyanide,C$_{4}$H$_{5}$N,,,-25,$^{\circ}$C,,,135,$^{\circ}$C,soluble in water
Deltorphin I,C$_{37}$H$_{52}$N$_{8}$O$_{10}$,768.856,g/mol,,,,,,,
Technetium (99mTc) tetrofosmin,,,,,,,,,,
Netoglitazone,C$_{21}$H$_{16}$FNO$_{3}$S,,,,,,,,,
Diproqualone,C$_{12}$H$_{14}$N$_{2}$O$_{3}$,,,,,,,,,
Squalene,C$_{30}$H$_{50}$,,,-5,$^{\circ}$C,,,285,$^{\circ}$C,
Tabun (nerve agent),C$_{5}$H$_{11}$N$_{2}$O$_{2}$P,,,-50,$^{\circ}$C,,,247.5,$^{\circ}$C,9.8
Mebhydrolin,C$_{19}$H$_{20}$N$_{2}$,,,,,,,,,
Dimethyldichlorosilane,C$_{2}$H$_{6}$SiCl$_{2}$,,,-76,$^{\circ}$C,,,70,$^{\circ}$C,Decomposes in water
Coprostanol,C$_{27}$H$_{48}$O,388.6756,g/mol,102,$^{\circ}$C,,,,,
Uranium nitride,U$_{2}$N$_{3}$,518.078,g/mol,900-1100,$^{\circ}$C,,,,,0.08
Bufexamac,C$_{12}$H$_{17}$NO$_{3}$,,,,,,,,,
Azelastine,C$_{22}$H$_{24}$ClN$_{3}$O,,,,,,,,,
Antamanide,C$_{64}$H$_{78}$N$_{10}$O$_{10}$,1147.36,g/mol,,,,,,,
Terbium(III) bromide,TbBr$_{3}$,398.637,g/mol,828,$^{\circ}$C,,,1490,$^{\circ}$C,soluble
Chlorine nitrate,ClNO$_{3}$,,,,,1.65,g/cm$^{3}$,,,
Enprazepine,C$_{20}$H$_{24}$N$_{2}$,,,,,,,,,
Vadimezan,C$_{17}$H$_{14}$O$_{4}$,,,,,,,,,
Ajoene,C$_{9}$H$_{14}$OS$_{3}$,234.4,g/mol,,,,,,,
Tasquinimod,C$_{20}$H$_{17}$F$_{3}$N$_{2}$O$_{4}$,,,,,,,,,
Fluocinonide,C$_{26}$H$_{32}$F$_{2}$O$_{7}$,,,,,,,,,
Cyprazepam,C$_{19}$H$_{18}$ClN$_{3}$O,,,,,,,,,
Dimethylbenzylamine,C$_{9}$H$_{13}$N,,,-75,$^{\circ}$C,,,180-183,$^{\circ}$C,1.2
Maltol,C$_{6}$H$_{6}$O$_{3}$,,,161,$^{\circ}$C,1.348,g/cm$^{3}$,,,
Camphor,C$_{10}$H$_{16}$O,,,175,$^{\circ}$C,,,209,$^{\circ}$C,~1000
Pentaerythritol tetranitrate,C$_{5}$H$_{8}$N$_{4}$O$_{12}$,,,141.3,$^{\circ}$C,,,180,$^{\circ}$C,
Butylated hydroxyanisole,C$_{11}$H$_{16}$O$_{2}$,,,48-55,$^{\circ}$C,,,264-270,$^{\circ}$C,Insoluble in water
Dilazep,C$_{31}$H$_{44}$N$_{2}$O$_{10}$,,,,,,,,,
Dewar benzene,C$_{6}$H$_{6}$,,,,,,,,,
Clofibrate,C$_{12}$H$_{15}$ClO$_{3}$,,,,,,,,,
Hexamethyldisiloxane,C$_{6}$H$_{18}$OSi$_{2}$,,,-59,$^{\circ}$C,,,100,$^{\circ}$C,930.7$\pm$33.7
P-Azobenzenearsonate,C$_{12}$H$_{12}$As$_{2}$N$_{2}$O$_{6}$,,,,,,,,,
Sulfadimethoxine,C$_{12}$H$_{14}$N$_{4}$O$_{4}$S,,,,,,,,,
Ammonium aluminium sulfate,(NH$_{4}$)Al(SO$_{4}$)$_{2}$,237.15,g/mol,93.5,$^{\circ}$C,2.45,g/cm$^{3}$,120,$^{\circ}$C,15
Ro01-6128,C$_{17}$H$_{17}$NO$_{3}$,,,,,,,,,
Prodelphinidin B9,C$_{30}$H$_{26}$O$_{13}$,,,,,,,,,
Magnesium sulfite,MgSO3(anhydrous)MgSO3.6H2O,104.368200,g/mol,,,,,,,
O-806,C$_{22}$H$_{27}$BrO$_{2}$,,,,,,,,,
Uridine monophosphate,C$_{9}$H$_{13}$N$_{2}$O$_{9}$P,,,202,$^{\circ}$C,,,,,"good, also in methanol"
Acetohexamide,C$_{15}$H$_{20}$N$_{2}$O$_{4}$S,,,,,,,,,
Borane dimethylsulfide,(CH$_{3}$)$_{2}$S.BH$_{3}$,75.96,g/mol,,,,,,,
Sodium bromide,NaBr,,,747,$^{\circ}$C,3.21,g/cm$^{3}$,1390,$^{\circ}$C,71.35
Caffeic aldehyde,C$_{9}$H$_{8}$O$_{3}$,164.15,g/mol,,,,,,,
Candicine,"C$_{11}$H$_{18}$NO$^{+}$,",,,234,$^{\circ}$C,,,,,Iodide and chloride are both highly soluble in water
Alpha-Ketoisocaproic acid,C$_{6}$H$_{10}$O$_{3}$,,,8,$^{\circ}$C,,,85,$^{\circ}$C,
Indolyl-3-acryloylglycine,C$_{13}$H$_{12}$N$_{2}$O$_{3}$,244.26,g/mol,,,,,,,
BAY 38-7271,,,,,,,,,,
Magnesium nitride,Mg$_{3}$N$_{2}$,100.9494,g/mol,,,2.712,g/cm$^{3}$,,,
STS-135 (drug),,,,,,,,,,
Guanidinium chloride,CH$_{6}$ClN$_{3}$,,,182.3,$^{\circ}$C,,,,,very soluble in water and ethanol
Nitramide,H$_{2}$N$_{2}$O$_{2}$,,,72-75,$^{\circ}$C,,,,,
Salubrinal,C$_{21}$H$_{17}$Cl$_{3}$N$_{4}$OS,,,,,,,,,
Idarubicin,C$_{26}$H$_{27}$NO$_{9}$,,,,,,,,,
Arachidonic acid 5-hydroperoxide,C$_{20}$H$_{32}$O$_{4}$,336.466,g/mol,,,,,,,
Tazarotene,C$_{21}$H$_{21}$NO$_{2}$S,,,,,,,,,
Antimony triiodide,SbI$_{3}$,,,170.5,$^{\circ}$C,4.921,g/cm$^{3}$,401.6,$^{\circ}$C,reacts
EA-3580,C$_{18}$H$_{25}$NO$_{3}$,,,,,,,,,
Bortezomib,C$_{19}$H$_{25}$BN$_{4}$O$_{4}$,,,,,,,,,
Carbarsone,C$_{7}$H$_{9}$AsN$_{2}$O$_{4}$,,,,,,,,,
Rhodium(III) oxide,Rh$_{2}$O$_{3}$,253.8092,g/mol,1100,$^{\circ}$C,8.20,g/cm$^{3}$,,,insoluble
SN-38,C$_{22}$H$_{20}$N$_{2}$O$_{5}$,392.404,g/mol,,,,,,,
Mozavaptan,C$_{27}$H$_{29}$N$_{3}$O$_{2}$,,,,,,,,,
Butofilolol,C$_{17}$H$_{26}$FNO$_{3}$,,,,,,,,,
Rhenium(VII) oxide,O$_{7}$Re$_{2}$,484.40298,g/mol,360,$^{\circ}$C,,,,,
Dienogest,C$_{20}$H$_{25}$NO$_{2}$,,,,,,,,,
Peroxynitrous acid,NHO$_{3}$,,,,,,,,,
Calcium formate,Ca(HCOO)$_{2}$,130.113,g/mol,,,2.009,g/cm$^{3}$,,,16.1
Clarithromycin,C$_{38}$H$_{69}$NO$_{13}$,,,,,,,,,
Chiraphos,C$_{28}$H$_{28}$P$_{2}$,426.47,g/mol,104-109,$^{\circ}$C,,,,,
Valproic acid,,,,,,,,,,
Glycidol,C$_{3}$H$_{6}$O$_{2}$,,,,,,,,,
DMPX,C$_{10}$H$_{10}$N$_{4}$O$_{2}$,,,,,,,,,
Beta-Hexachlorocyclohexane,C$_{6}$H$_{6}$Cl$_{6}$,290.83,g/mol,,,,,,,
Sodium chlorate,NaClO$_{3}$,,,248-261,$^{\circ}$C,2.49,g/cm$^{3}$,300-400,$^{\circ}$C,79
Acivicin,C$_{5}$H$_{7}$ClN$_{2}$O$_{3}$,,,,,,,,,
Indole-3-acetic acid,C$_{10}$H$_{9}$NO$_{2}$,,,168,$^{\circ}$C,,,,,Moderate
Lithium acetate,C$_{2}$H$_{3}$LiO$_{2}$,,,286,$^{\circ}$C,1.26,g/cm$^{3}$,,,45.0
Calcium alginate,(C$_{12}$H$_{14}$CaO$_{12}$)$_{n}$,,,,,,,,,
Penbutolol,C$_{18}$H$_{29}$NO$_{2}$,,,,,,,,,
K252a,C$_{27}$H$_{21}$N$_{3}$O$_{5}$,,,,,,,,,
LSD-Pip,C$_{21}$H$_{25}$N$_{3}$O,,,,,,,,,
Dimethenamid,C$_{12}$H$_{18}$ClNO$_{2}$S,275.79,g/mol,,,1.141,g/cm$^{3}$,,,
Hexobarbital,C$_{12}$H$_{16}$N$_{2}$O$_{3}$,,,,,,,,,
NSI-189,C$_{22}$H$_{30}$N$_{4}$O,,,,,,,,,
Hydroperoxyl,HO$_{2}$,,,,,,,,,
N-Methylconiine,C$_{8}$H$_{17}$NO,,,121,$^{\circ}$C,,,226,$^{\circ}$C,moderate
Iotalamic acid,,,,,,,,,,
Nocardicin A,C$_{23}$H$_{24}$N$_{4}$O$_{9}$,500.46,g/mol,,,,,,,
Inosine,C$_{10}$H$_{12}$N$_{4}$O$_{5}$,,,,,,,,,
Chromium acetate hydroxide,Cr$_{3}$(OH)$_{2}$(OOCCH$_{3}$)$_{7}$,603.3,g/mol,,,,,,,insoluble in acetone
Nerisopam,C$_{18}$H$_{19}$N$_{3}$O$_{2}$,,,,,,,,,
Avanafil,C$_{23}$H$_{26}$ClN$_{7}$O$_{3}$,,,,,,,,,
Morniflumate,C$_{19}$H$_{20}$F$_{3}$N$_{3}$O$_{3}$,,,,,,,,,
Cadmium chromate,CdCrO$_{4}$,,,,,,,,,
Mercury(II) thiocyanate,Hg(SCN)$_{2}$,316.755,g/mol,165,$^{\circ}$C,,,,,0.069
Prostaglandin E3,,,,,,,,,,
Zucapsaicin,C$_{18}$H$_{27}$NO$_{3}$,,,,,,,,,
Tetra-n-butylammonium bromide,C$_{16}$H$_{36}$BrN,322.368,g/mol,103,$^{\circ}$C,,,,,
Brinzolamide,C$_{12}$H$_{21}$N$_{3}$O$_{5}$S$_{3}$,,,,,,,,,
Fasudil,C$_{27}$H$_{38}$F$_{6}$O$_{3}$,,,,,,,,,
Cerium(IV) sulfate,Ce(SO$_{4}$)$_{2}$,332.24,g/mol,350,$^{\circ}$C,3.91,g/cm$^{3}$,,,"Soluble in small amounts, hydrolyzes in large amounts of water"
Calcium chloride,CaCl$_{2}$,,,772-775,$^{\circ}$C,2.15,g/cm$^{3}$,1935,$^{\circ}$C,Hexahydrate:
Frovatriptan,C$_{14}$H$_{17}$N$_{3}$O,,,,,,,,,
DMDM hydantoin,C$_{7}$H$_{12}$N$_{2}$O$_{4}$,188.18,g/mol,,,,,,,
Nantenine,C$_{20}$H$_{21}$NO$_{4}$,,,,,,,,,
Tetramethylsilane,C$_{4}$H$_{12}$Si,,,-99,$^{\circ}$C,,,26,$^{\circ}$C,
Nickel(II) fluoride,NiF$_{2}$,96.6902,g/mol,1474,$^{\circ}$C,4.72,g/cm$^{3}$,1750,$^{\circ}$C,4
Potassium amide,KNH$_{2}$,,,338,$^{\circ}$C,,,,,reacts
Sodium sulfate,Na$_{2}$SO$_{4}$,142.04,g/mol,884,$^{\circ}$C,2.664,g/cm$^{3}$,1429,$^{\circ}$C,anhydrous:   4.76
Bornane,C$_{10}$H$_{18}$,,,,,,,,,
Lixivaptan,C$_{27}$H$_{21}$ClFN$_{3}$O$_{2}$,,,,,,,,,
Sulconazole,C$_{18}$H$_{15}$Cl$_{3}$N$_{2}$S,,,,,,,,,
Diethylamino hydroxybenzoyl hexyl benzoate,C$_{24}$H$_{31}$NO$_{4}$,397.51,g/mol,,,,,,,
Cadralazine,C$_{12}$H$_{21}$N$_{5}$O$_{3}$,,,,,,,,,
Lead(II) phosphate,Pb$_{3}$P$_{2}$O$_{8}$,,,1014,$^{\circ}$C,6.9,g/cm$^{3}$,,,0.000014
Fleroxacin,C$_{17}$H$_{18}$F$_{3}$N$_{3}$O$_{3}$,,,,,,,,,
Casuarictin,C$_{41}$H$_{28}$O$_{26}$,936.64,g/mol,,,,,,,
Nithiazine,C$_{5}$H$_{8}$N$_{2}$O$_{2}$S,,,,,1.388,g/cm$^{3}$,,,
Autoinducer-2,C$_{5}$H$_{10}$BO$_{7}$,,,,,,,,,
Talarozole,C$_{21}$H$_{23}$N$_{5}$S,,,,,,,,,
Valdecoxib,C$_{16}$H$_{14}$N$_{2}$O$_{3}$S,,,,,,,,,
P-Hydroxynorephedrine,C$_{9}$H$_{13}$NO$_{2}$,,,,,,,,,
Dibutyltin oxide,C$_{8}$H$_{18}$OSn,,,> 300,$^{\circ}$C,1.6,g/cm$^{3}$,,,
Fasoracetam,C$_{10}$H$_{16}$N$_{2}$O$_{2}$,196.246,g/mol,,,,,,,
Bardoxolone methyl,,,,,,,,,,
Methanol,CH$_{3}$OH,,,-97.6,$^{\circ}$C,,,64.7,$^{\circ}$C,
Ro67-4853,C$_{19}$H$_{19}$NO$_{4}$,,,,,,,,,
Quipazine,C$_{13}$H$_{15}$N$_{3}$,,,,,,,,,
Uldazepam,C$_{18}$H$_{15}$Cl$_{2}$N$_{3}$O,,,,,,,,,
Potassium octachlorodirhenate,K$_{2}$Re$_{2}$Cl$_{8}$,,,,,,,,,
Thiobutabarbital,C$_{10}$H$_{16}$N$_{2}$O$_{2}$S,,,,,,,,,
PHCCC,C$_{17}$H$_{14}$N$_{2}$O$_{3}$,,,,,,,,,
Diborane(4),B$_{2}$H$_{4}$,,,,,,,,,
Pyrimethamine,C$_{12}$H$_{13}$ClN$_{4}$,,,,,,,,,
Dithioerythritol,C$_{4}$H$_{10}$O$_{2}$S$_{2}$,154.253,g/mol,82-84,$^{\circ}$C,,,,,
Combretastatin A-4,C$_{18}$H$_{20}$O$_{5}$,316.34,g/mol,116,$^{\circ}$C,,,,,
Galactose,C$_{6}$H$_{12}$O$_{6}$,,,167,$^{\circ}$C,1.723,g/cm$^{3}$,,,683.0
Zinc selenide,ZnSe,144.35,g/mol,1525,$^{\circ}$C,5.27,g/cm$^{3}$,,,negligible
Lactofen,C$_{19}$H$_{15}$ClF$_{3}$NO$_{7}$,,,43.9,$^{\circ}$C,,,,,
Thiorphan,C$_{12}$H$_{15}$NO$_{3}$S,,,,,,,,,
O-2172,C$_{14}$H$_{16}$Cl$_{2}$O$_{2}$,,,,,,,,,
Retinoic acid,C$_{20}$H$_{28}$O$_{2}$,300.43512,g/mol,,,,,,,
Selenium hexafluoride,SeF$_{6}$,192.9534,g/mol,-34.6,$^{\circ}$C,7.887,g/cm$^{3}$,-46.6,$^{\circ}$C,insoluble
CP-135807,C$_{19}$H$_{21}$N$_{5}$O$_{2}$,,,,,,,,,
Salbutamol,C$_{13}$H$_{21}$NO$_{3}$,,,,,,,,,
Bis-HPPP,C$_{21}$H$_{28}$O$_{6}$,376.44,g/mol,,,,,,,
Quifenadine,C$_{20}$H$_{23}$NO,,,,,,,,,
Nicardipine,C$_{26}$H$_{29}$N$_{3}$O$_{6}$,,,,,,,,,
Tryptophan,C$_{11}$H$_{12}$N$_{2}$O$_{2}$,,,,,,,,,Soluble: 0.23
Cefpirome,C$_{22}$H$_{22}$N$_{6}$O$_{5}$S$_{2}$,,,,,,,,,
Cannabichromene,C$_{21}$H$_{30}$O$_{2}$,314.46,g/mol,,,,,,,
Nitazoxanide,C$_{12}$H$_{9}$N$_{3}$O$_{5}$S,,,,,,,,,
Phosphatrioxa-adamantane,C$_{10}$H$_{17}$O$_{3}$P,,,,,,,,,
Ceroplastic acid,C$_{35}$H$_{70}$O$_{2}$,522.93,g/mol,,,,,,,
N-Acetylglucosamine,C$_{8}$H$_{15}$NO$_{6}$,,,,,,,,,
Rongalite,CH$_{3}$NaO$_{3}$S,,,64.5,$^{\circ}$C,,,,,600
Liquid hydrogen,H$_{2}$,,,-259.14,$^{\circ}$C,,,-252.87,$^{\circ}$C,
Vindesine,C$_{43}$H$_{55}$N$_{5}$O$_{7}$,,,,,,,,,
Ethane,C$_{2}$H$_{6}$,,,,,,,,,56.8
Heroin,C$_{21}$H$_{23}$NO$_{5}$,,,,,,,,,
Cobalt tetracarbonyl hydride,C$_{4}$HCoO$_{4}$,171.98,g/mol,-33,$^{\circ}$C,,,47,$^{\circ}$C,0.05% (20$^{\circ}$C)
Hyoscyamine,C$_{17}$H$_{23}$NO$_{3}$,,,,,,,,,
Pyroglutamic acid,C$_{5}$H$_{7}$NO$_{3}$,,,184,$^{\circ}$C,,,,,
Glucic acid,C$_{3}$H$_{4}$O$_{3}$,,,149,$^{\circ}$C,,,274,$^{\circ}$C,
Disiloxane,H$_{6}$OSi$_{2}$,,,-144,$^{\circ}$C,,,-15.2,$^{\circ}$C,
Methanesulfonic acid,CH$_{4}$O$_{3}$S,,,17-19,$^{\circ}$C,1.48,g/cm$^{3}$,167,$^{\circ}$C,
Maleic anhydride,C$_{4}$H$_{2}$O$_{3}$,,,52.8,$^{\circ}$C,1.48,g/cm$^{3}$,202,$^{\circ}$C,Reacts
Pirolazamide,C$_{23}$H$_{29}$N$_{3}$O,,,,,,,,,
Beryllium oxide,BeO,,,2507,$^{\circ}$C,,,3900,$^{\circ}$C,0.00002
Pralatrexate,C$_{23}$H$_{23}$N$_{7}$O$_{5}$,,,,,,,,,
Propylamine,C$_{3}$H$_{9}$N,,,,,,,,,Miscible
Magnesium trisilicate,Mg$_{2}$O$_{8}$Si$_{3}$,,,,,,,,,
Laminarin,(C$_{6}$H$_{10}$O$_{5}$)$_{x}$,,,,,,,,,
Pipotiazine,C$_{24}$H$_{33}$N$_{3}$O$_{3}$S$_{2}$,,,,,,,,,
Isobutane,C$_{4}$H$_{10}$,,,,,,,,,
Cimoxatone,C$_{19}$H$_{18}$N$_{2}$O$_{4}$,,,,,,,,,
Devapamil,C$_{26}$H$_{36}$N$_{2}$O$_{3}$,,,,,,,,,
Cycloprop-2-ene carboxylic acid,C$_{4}$H$_{4}$O$_{2}$,,,,,,,,,
Troxacitabine,C$_{8}$H$_{11}$N$_{3}$O$_{4}$,,,,,,,,,
Naphtholphthalein,C$_{28}$H$_{18}$O$_{4}$,,,238-240,$^{\circ}$C,,,,,Insoluble
Chloryl fluoride,ClO$_{2}$F,86.4502,g/mol,-15,$^{\circ}$C,,,-6,$^{\circ}$C,
Nateglinide,C$_{19}$H$_{27}$NO$_{3}$,,,,,,,,,
Procyanidin B4,C$_{30}$H$_{26}$O$_{12}$,578.52,g/mol,,,,,,,
Ytterbium(III) fluoride,YbF$_{3}$,230.04,g/mol,1052,$^{\circ}$C,8.2,g/cm$^{3}$,2380,$^{\circ}$C,insoluble
Thiazyl trifluoride,NSF$_{3}$,,,-72.6,$^{\circ}$C,,,-27.1,$^{\circ}$C,
Acetic formic anhydride,C$_{3}$H$_{4}$O$_{3}$,,,,,,,,,
Genkwanin,C$_{16}$H$_{12}$O$_{5}$,284.27,g/mol,,,,,,,
Acaprazine,C$_{15}$H$_{21}$Cl$_{2}$N$_{3}$O,,,,,,,,,
Fenarimol,C$_{17}$H$_{12}$Cl$_{2}$N$_{2}$O,,,117-119,$^{\circ}$C,,,240,$^{\circ}$C,13.7
Gadoteric acid,,,,,,,,,,
Carbon subsulfide,C$_{3}$S$_{2}$,,,-1,$^{\circ}$C,,,90,$^{\circ}$C,insoluble
SCH 23390,C$_{17}$H$_{18}$ClNO,287.78,g/mol,,,,,,,
Butyl butyrate,C$_{8}$H$_{16}$O$_{2}$,,,-91.5,$^{\circ}$C,,,165,$^{\circ}$C,insoluble
EXP-561,C$_{14}$H$_{19}$N,,,,,,,,,
Meprobamate,C$_{9}$H$_{18}$N$_{2}$O$_{4}$,,,,,,,,,
PA 824,C$_{14}$H$_{12}$F$_{3}$N$_{3}$O$_{5}$,359.258,g/mol,,,,,,,
Methaphenilene,C$_{15}$H$_{20}$N$_{2}$S,,,,,,,,,
Sibrafiban,C$_{16}$H$_{21}$NO$_{2}$,,,,,,,,,
Wedelolactone,C$_{16}$H$_{10}$O$_{7}$,314.24,g/mol,,,,,,,
Magnesium peroxide,MgO$_{2}$,56.3038,g/mol,223,$^{\circ}$C,3,g/cm$^{3}$,350,$^{\circ}$C,insoluble
Benfotiamine,C$_{19}$H$_{23}$N$_{4}$O$_{6}$PS,,,,,,,,,
Cycloheptane,C$_{7}$H$_{14}$,,,-12,$^{\circ}$C,0.8110,g/cm$^{3}$,118.4,$^{\circ}$C,
Triphenylsulfonium triflate,C$_{19}$H$_{15}$F$_{3}$O$_{3}$S$_{2}$,412.45,g/mol,,,,,,,
Methyl vinyl ether,H$_{2}$S$_{2}$O$_{5}$,,,-122,$^{\circ}$C,,,6,$^{\circ}$C,
Brallobarbital,C$_{10}$H$_{11}$BrN$_{2}$O$_{3}$,,,,,,,,,
Disuccinimidyl suberate,C$_{16}$H$_{20}$N$_{2}$O$_{8}$,,,,,,,,,
Cyclofenil,C$_{23}$H$_{24}$O$_{4}$,,,,,,,,,
Yangonin,C$_{15}$H$_{14}$O$_{4}$,,,,,,,,,
Risedronic acid,,,,,,,,,,
Ethyl acrylate,C$_{5}$H$_{8}$O$_{2}$,,,-71,$^{\circ}$C,,,99.4,$^{\circ}$C,1.5
Methohexital,C$_{14}$H$_{18}$N$_{2}$O$_{3}$,,,,,,,,,
Sodium propionate,C$_{3}$H$_{5}$NaO$_{2}$,96.060,g/mol,289,$^{\circ}$C,,,,,1
Palovarotene,C$_{27}$H$_{30}$N$_{2}$O$_{2}$,,,,,,,,,
SB-399885,C$_{18}$H$_{21}$Cl$_{2}$N$_{3}$O$_{4}$S,,,,,,,,,
Atorvastatin,C$_{33}$H$_{35}$FN$_{2}$O$_{5}$,,,,,,,,,
Turanose,C$_{12}$H$_{22}$O$_{11}$,342.30,g/mol,,,,,,,
Cholesteryl chloride,C$_{27}$H$_{45}$Cl,,,94-96,$^{\circ}$C,,,,,
Strychnine,C$_{21}$H$_{22}$N$_{2}$O$_{2}$,,,,,,,,,0.02% (20$^{\circ}$C)
Potassium tris(3 5-dimethyl-1-pyrazolyl)borate,C$_{15}$H$_{22}$BKN$_{6}$,,,292-301,$^{\circ}$C,,,,,
Rhodium hexafluoride,RhF$_{6}$,216.91,g/mol,$\in$ 70,$^{\circ}$C,,,,,
Triprolidine,C$_{19}$H$_{22}$N$_{2}$,,,,,,,,,
Xenon tetrafluoride,XeF$_{4}$,,,117,$^{\circ}$C,,,,,Reacts
AM-905,C$_{23}$H$_{34}$O$_{3}$,,,,,,,,,
Anhalinine,C$_{12}$H$_{17}$NO$_{3}$,,,,,,,,,
Gyrophoric acid,C$_{24}$H$_{20}$O$_{10}$,468.40,g/mol,,,,,,,
Chromium(III) nicotinate,,,,,,,,,,
Metaproscaline,C$_{13}$H$_{21}$NO$_{3}$,239.311,g/mol,,,,,,,
Alizapride,C$_{16}$H$_{21}$N$_{5}$O$_{2}$,,,,,,,,,
Diacerein,C$_{19}$H$_{12}$O$_{8}$,,,,,,,,,
Perfluorohexane,C$_{6}$F$_{14}$,,,-90,$^{\circ}$C,,,56,$^{\circ}$C,
Sodium erythorbate,C$_{6}$H$_{7}$NaO$_{6}$,198.11,g/mol,168-170,$^{\circ}$C,,,,,16
Pentaethylene glycol monododecyl ether,C$_{22}$H$_{46}$O$_{6}$,,,,,,,,,
Delta-Tocopherol,C$_{27}$H$_{46}$O$_{2}$,402.65,g/mol,,,,,,,
Psicose,C$_{6}$H$_{12}$O$_{6}$,,,58,$^{\circ}$C,,,,,
Heptanal,C$_{7}$H$_{14}$O,,,-43.3,$^{\circ}$C,,,152.8,$^{\circ}$C,Slightly soluble
Semaxanib,C$_{15}$H$_{14}$N$_{2}$O,,,,,,,,,
Trimethylene carbonate,C$_{4}$H$_{6}$O$_{3}$,,,,,,,,,
Necopidem,C$_{23}$H$_{29}$N$_{3}$O,,,,,,,,,
Alliin,C$_{6}$H$_{11}$NO$_{3}$S,177.22,g/mol,163-165,$^{\circ}$C,,,,,Soluble
DiFMDA,C$_{10}$H$_{11}$F$_{2}$NO$_{2}$,,,,,,,,,
Silicotungstic acid,H$_{4}$(W$_{12}$SiO$_{40}$),2878.2,g/mol,53,$^{\circ}$C,,,,,
Vinblastine,C$_{46}$H$_{58}$N$_{4}$O$_{9}$,,,,,,,,,
Diacetone alcohol,C$_{6}$H$_{12}$O$_{2}$,,,-47,$^{\circ}$C,0.938,g/cm$^{3}$,166,$^{\circ}$C,moderate
Rotigotine,C$_{19}$H$_{25}$NOS,,,,,,,,,
Wine lactone,C$_{10}$H$_{14}$O$_{2}$,,,,,,,,,
Xibornol,C$_{18}$H$_{26}$O,,,,,,,,,
Phylloflavan,C$_{26}$H$_{26}$O$_{10}$,498.47,g/mol,,,,,,,
Flucloxacillin,C$_{19}$H$_{17}$ClFN$_{3}$O$_{5}$S,,,,,,,,,
Bupropion,C$_{13}$H$_{18}$ClNO,,,,,,,,,
GS-39783,C$_{15}$H$_{23}$N$_{5}$O$_{2}$S,,,,,,,,,
UH-232,C$_{18}$H$_{29}$NO,,,,,,,,,
Isovaleramide,C$_{5}$H$_{11}$NO,,,137,$^{\circ}$C,,,226,$^{\circ}$C,
Quadrangularin A,C$_{28}$H$_{22}$O$_{6}$,454.47,g/mol,,,,,,,
Alimemazine,C$_{18}$H$_{22}$N$_{2}$S,,,,,,,,,
Trestolone,C$_{19}$H$_{28}$O$_{2}$,,,,,,,,,
Sulbactam,C$_{8}$H$_{11}$NO$_{5}$S,,,,,,,,,
Domoic acid,C$_{15}$H$_{21}$NO$_{6}$,311.3303,g/mol,,,1.273,g/cm$^{3}$,,,
Beta-Alanine,C$_{3}$H$_{7}$NO$_{2}$,89.093,g/mol,207,$^{\circ}$C,1.437,g/cm$^{3}$,,,54.5
Chloropentamminecobalt chloride,(Co(NH$_{3}$)$_{5}$Cl)Cl$_{2}$,250.4,g/mol,,,,,,,0.4
Ammonium hexafluoroaluminate,(NH$_{4}$)$_{3}$AlF$_{6}$,195.09,g/mol,126.1,$^{\circ}$C,,,239.5,$^{\circ}$C,
Meglumine antimoniate,,,,,,,,,,
Meprodine,C$_{17}$H$_{25}$NO$_{2}$,,,,,,,,,
Manganese(II) chloride,MnCl$_{2}$,125.844,g/mol,654,$^{\circ}$C,2.977,g/cm$^{3}$,1225,$^{\circ}$C,63.4
Plicadin,C$_{20}$H$_{14}$O$_{5}$,334.32,g/mol,,,,,,,
Pingbeinine,C$_{28}$H$_{47}$NO$_{3}$,,,,,,,,,
Phyllodulcin,C$_{16}$H$_{14}$O$_{5}$,286.27,g/mol,,,,,,,
AL-1095,C$_{20}$H$_{22}$ClNO,,,,,,,,,
Herkinorin,C$_{28}$H$_{30}$O$_{8}$,,,,,,,,,
Nitronium perchlorate,NO$_{6}$Cl,,,135,$^{\circ}$C,,,,,soluble (hydroscopic)
Isonicotinamide,C$_{6}$H$_{6}$N$_{2}$O,,,,,,,,,
Vanadium(IV) oxide,VO$_{2}$,82.94,g/mol,1967,$^{\circ}$C,4.571,g/cm$^{3}$,,,
Desonide,C$_{24}$H$_{32}$O$_{6}$,,,,,,,,,
Nicotinamide,C$_{6}$H$_{6}$N$_{2}$O,,,129.5,$^{\circ}$C,,,334,$^{\circ}$C,
DPA-714,C$_{22}$H$_{27}$N$_{4}$O$_{2}$F,,,,,,,,,
Retigabine,C$_{16}$H$_{18}$FN$_{3}$O$_{2}$,,,,,,,,,
Pectolinarin,C$_{29}$H$_{34}$O$_{15}$,622.57,g/mol,,,,,,,
Dosulepin,C$_{19}$H$_{21}$NS,,,,,,,,,
Ammonium heptamolybdate,(NH$_{4}$)$_{6}$Mo$_{7}$O$_{24}$,1163.9,g/mol,~90,$^{\circ}$C,2.498,g/cm$^{3}$,,,43
Titanium(III) bromide,TiBr$_{3}$,287.579,g/mol,,,,,,,
Bromocresol green,C$_{21}$H$_{14}$O$_{5}$SBr$_{4}$,,,225,$^{\circ}$C,,,,,
Magnesium bromide,MgBr$_{2}$(anhydrous),184.113,g/mol,711,$^{\circ}$C,3.72,g/cm$^{3}$,1250,$^{\circ}$C,102
Piperic acid,C$_{12}$H$_{10}$O$_{4}$,,,,,,,,,
Dimenoxadol,C$_{20}$H$_{25}$NO$_{3}$,,,,,,,,,
Lithium tetramethylpiperidide,C$_{9}$H$_{18}$LiN,,,,,,,,,
Hydrogen peroxide-urea,CH$_{6}$N$_{2}$O$_{3}$,,,75,$^{\circ}$C,,,,,
Ovalene,C$_{32}$H$_{14}$,398.45,g/mol,,,,,,,
Decynium-22,C$_{23}$H$_{23}$N$_{2}$I,,,273,$^{\circ}$C,,,,,
Djenkolic acid,C$_{7}$H$_{14}$N$_{2}$O$_{4}$S$_{2}$,254.33,g/mol,,,,,,,1.02
Triolein,C$_{57}$H$_{104}$O$_{6}$,885.432,g/mol,,,0.95,g/cm$^{3}$,,,
Cortisol,C$_{21}$H$_{30}$O$_{5}$,,,,,,,,,
Olaratumab,C$_{6554}$H$_{10076}$N$_{1736}$O$_{2048}$S$_{40}$,,,,,,,,,
Losmapimod,C$_{22}$H$_{26}$FN$_{3}$O$_{2}$,,,,,,,,,
Triheptanoin,C$_{24}$H$_{44}$O$_{6}$,428.60,g/mol,,,,,,,
Balsalazide,C$_{17}$H$_{15}$N$_{3}$O$_{6}$,,,,,,,,,
Sodium stearoyl lactylate,C$_{24}$H$_{43}$NaO$_{6}$,,,49,$^{\circ}$C,1.063,g/cm$^{3}$,,,dispersible in warm water
Benz(e)acephenanthrylene,C$_{20}$H$_{12}$,,,166,$^{\circ}$C,,,,,
Methyl acrylate,C$_{4}$H$_{6}$O$_{2}$,,,-74,$^{\circ}$C,0.95,g/cm$^{3}$,80,$^{\circ}$C,5
Tantalum(V) ethoxide,C$_{10}$H$_{25}$O$_{5}$Ta,,,21,$^{\circ}$C,1.566,g/cm$^{3}$,145,$^{\circ}$C,miscible
Stanozolol,C$_{21}$H$_{32}$N$_{2}$O,,,,,,,,,
Miroestrol,C$_{20}$H$_{22}$O$_{6}$,,,,,,,,,
Nitroacetic acid,C$_{2}$H$_{3}$NO$_{4}$,,,,,,,,,
Benzidine,C$_{12}$H$_{12}$N$_{2}$,184.24,g/mol,122-125,$^{\circ}$C,1.25,g/cm$^{3}$,400,$^{\circ}$C,0.94
Creatinolfosfate,C$_{4}$H$_{12}$N$_{3}$O$_{4}$P,197.13,g/mol,,,,,,,
Ammonium metavanadate,NH$_{4}$VO$_{3}$,116.98,g/mol,200,$^{\circ}$C,2.326,g/cm$^{3}$,,,
Pentacarbon dioxide,C$_{5}$O$_{2}$,92.05,g/mol,,,,,,,
Timepidium bromide,,,,,,,,,,
Potassium azide,KN$_{3}$,81.1184,g/mol,350,$^{\circ}$C,,,,,41.4
Benfluorex,C$_{19}$H$_{20}$F$_{3}$NO$_{2}$,,,,,,,,,
Methyl fluorosulfonate,CH$_{3}$O$_{3}$FS,114.09,g/mol,,,,,93,$^{\circ}$C,
Uranium hydride,UH$_{3}$,,,,,,,,,Reacts
Abafungin,C$_{21}$H$_{22}$N$_{4}$OS,,,,,,,,,
Trimetaphan camsilate,,,,,,,,,,
Cantharidin,C$_{10}$H$_{12}$O$_{4}$,196.20,g/mol,212,$^{\circ}$C,1.41,g/cm$^{3}$,,,
TM-38837,C$_{30}$H$_{25}$Cl$_{2}$F$_{3}$N$_{4}$OS,,,,,,,,,
Cefotetan,C$_{17}$H$_{17}$N$_{7}$O$_{8}$S$_{4}$,,,,,,,,,
Peonidin-3-O-glucoside,C$_{22}$H$_{23}$O$^{+}_{11}$,463.41,g/mol,,,,,,,
Anisomycin,C$_{14}$H$_{19}$NO$_{4}$,265.31,g/mol,139-143,$^{\circ}$C,,,,,
Metol,(C$_{7}$H$_{10}$NO)$_{2}$SO$_{4}$,344.38,g/mol,260,$^{\circ}$C,,,,,
Stibophen,C$_{12}$H$_{4}$Na$_{5}$O$_{16}$S$_{4}$Sb,,,,,,,,,
DHA-clozapine,C$_{40}$H$_{49}$ClN$_{4}$O,,,,,,,,,
Hexachloropropene,C$_{3}$Cl$_{6}$,248.75,g/mol,-73,$^{\circ}$C,1.765,g/cm$^{3}$,210,$^{\circ}$C,