Property Melting Point,Property Density,Property Boiling Point,Property Solubility,Property Molar Mass,Name,formula
,,,,,Deoxycytidine,C$_{9}$H$_{13}$N$_{3}$O$_{4}$
410,1.497,,62.69,,Sodium benzoate,NaC$_{7}$H$_{5}$O$_{2}$
,,,,,Emodepside,C$_{60}$H$_{90}$N$_{6}$O$_{14}$
,,,,,Cocaine,C$_{17}$H$_{21}$NO$_{4}$
<0,,,223,269.767,Acetochlor,C$_{14}$H$_{20}$ClNO$_{2}$
,,,,,Sodium polyaspartate,(C$_{4}$H$_{4}$NNaO$_{3}$)$_{n}$
,,,,,Trimesic acid,C$_{9}$H$_{6}$O$_{6}$
,,,,138.25,Spirodecane,C$_{10}$H$_{18}$
,,,,,Arbutamine,C$_{18}$H$_{23}$NO$_{4}$
,,,Soluble,,Poly(methacrylic acid),(C$_{4}$H$_{6}$O$_{2}$)$_{n}$
50,,411.2,,,Trioctylphosphine oxide,C$_{24}$H$_{51}$OP
,,,,,Lomefloxacin,C$_{17}$H$_{19}$F$_{2}$N$_{3}$O$_{3}$
,,,,418.39,Natsudaidain,C$_{21}$H$_{22}$O$_{9}$
,,,,333.296,UBP-302,C$_{15}$H$_{15}$N$_{3}$O$_{6}$
,,,,,RTI-229,C$_{19}$H$_{25}$IN$_{2}$O
,,,,416.382,Acid Blue 25,C$_{20}$H$_{13}$N$_{2}$NaO$_{5}$S(Sodiumsalt)
,,,,,Lophophine,C$_{10}$H$_{13}$NO$_{3}$
,,,16.1,162.11464,Calcium bicarbonate,Ca(HCO$_{3}$)$_{2}$
,,,negligible,204.25,Tributylphosphine,C$_{12}$H$_{27}$P
,,,,,Diclofensine,C$_{17}$H$_{17}$Cl$_{2}$NO
,,,,,Niaprazine,C$_{20}$H$_{25}$FN$_{4}$O
,,,,,Norbinaltorphimine,C$_{40}$H$_{43}$N$_{3}$O$_{6}$
,,,,,Nilotinib,C$_{28}$H$_{22}$F$_{3}$N$_{7}$O
,,,,,Dibenzoylmorphine,C$_{31}$H$_{27}$NO$_{5}$
186,,,,342.35,Coniferin,C$_{16}$H$_{22}$O$_{8}$
1,1.131,231-234,,166.17,Ethyl salicylate,C$_{9}$H$_{10}$O$_{3}$
558,,180-200,soluble,265.2834,Terbium(III) chloride,TbCl$_{3}$
,,,,,Avitriptan,C$_{22}$H$_{30}$N$_{6}$O$_{3}$S
,,,,,Vidarabine phosphate,C$_{10}$H$_{14}$N$_{5}$O$_{7}$P
5.7,1.199,210.9,0.19,123.06,Nitrobenzene,C$_{6}$H$_{5}$NO$_{2}$
147-150,,,,,Dimedone,C$_{8}$H$_{12}$O$_{2}$
,,,,166.22,Phenalene,C$_{13}$H$_{10}$
110-114,1.17,117.1,102,,Ammonium acetate,NH$_{7}$C$_{2}$O$_{2}$
,,,,256.29,Orchinol,C$_{16}$H$_{16}$O$_{3}$
,,,,,Gadolinium acetylacetonate,GdC$_{15}$H$_{21}$O$_{6}$
,,,,,Ciclobendazole,C$_{13}$H$_{13}$N$_{3}$O$_{3}$
,3.81,,insoluble,,Cobalt phosphate,Co$_{3}$O$_{8}$P$_{2}$
,,,,,Lacidipine,C$_{26}$H$_{33}$NO$_{6}$
,,,,,Carbutamide,C$_{11}$H$_{17}$N$_{3}$O$_{3}$S
,,,,,Glibenclamide,C$_{23}$H$_{28}$ClN$_{3}$O$_{5}$S
223-224,,,,,Zenarestat,C$_{17}$H$_{11}$BrClFN$_{2}$O$_{4}$
,,,,,GR-89696,C$_{19}$H$_{25}$Cl$_{2}$N$_{3}$O$_{3}$
9,1.5634,194,miscible,,Dichloroacetic acid,C$_{2}$H$_{2}$Cl$_{2}$O$_{2}$
,,,,,Levoamphetamine,C$_{9}$NH$_{13}$
,,,,,Papaverine,C$_{20}$H$_{21}$NO$_{4}$
,,,,,Norfloxacin,C$_{16}$H$_{18}$FN$_{3}$O$_{3}$
,,,Soluble,207.43,Ruthenium(III) chloride,RuCl$_{3}$.xH$_{2}$O
,,,,551.29,Yellow 2G,C$_{16}$H$_{10}$Na$_{2}$N$_{4}$O$_{7}$S$_{2}$
,,,,240.21,Dinoseb,C$_{10}$H$_{12}$N$_{2}$O$_{5}$
,0.928,254,,204.36,Longifolene,C$_{15}$H$_{24}$
,,,,,Triclofos,C$_{2}$H$_{4}$Cl$_{3}$O$_{4}$P
-90,,112.0-116.0,slightly soluble (4.6 g/100ml at 20 $^{\circ}$C),75.07,Nitroethane,C$_{2}$H$_{5}$NO$_{2}$
,,,,,QL (chemical),C$_{11}$H$_{26}$NO$_{2}$P
,,,,,Tuaminoheptane,C$_{7}$H$_{17}$N
,,,,302.32,Diffutidin,C$_{17}$H$_{18}$O$_{5}$
,,,,,Dichloropane,C$_{15}$H$_{17}$Cl$_{2}$NO$_{2}$
,,,,,Motexafin gadolinium,
,,,,,Nociceptin,C$_{79}$H$_{129}$N$_{27}$O$_{22}$
166,,,,580.54,Naringin,C$_{27}$H$_{32}$O$_{14}$
,,,,,Sesamodil,C$_{29}$H$_{32}$N$_{2}$O$_{6}$S
,,,,,Bucindolol,C$_{22}$H$_{25}$N$_{3}$O$_{2}$
,,,,,Etymemazine,C$_{20}$H$_{26}$N$_{2}$S
,,,,,Glycerol 1-phosphate,C$_{3}$H$_{9}$O$_{6}$P
,,,,,Pramocaine,C$_{17}$H$_{27}$NO$_{3}$
,,,,,Eribulin,C$_{40}$H$_{59}$NO
2360,,,,162.927,Lanthanum carbide,LaC$_{2}$
,1.022,622,,456.6573,Callystatin A,C$_{29}$H$_{44}$O$_{4}$
,1.636,,80,,Potassium hydrogen phthalate,C$_{8}$H$_{5}$KO$_{4}$
,,,,,Gepirone,C$_{19}$H$_{29}$N$_{5}$O$_{2}$
,,,,,Atomic carbon,C
1470,4.02,,insoluble,104.038,Titanium disilicide,TiSi$_{2}$
-113,,7.4,,,Methoxyethane,C$_{3}$H$_{8}$O
,4.77,,,431.76,Silver dichromate,Ag$_{2}$Cr$_{2}$O$_{7}$
,,,,364.85,Methylene green,C$_{16}$H$_{17}$ClN$_{4}$O$_{2}$S
177,,75,,450.745,Uranium hexachloride,UCl$_{6}$
,,,,,Fletazepam,C$_{17}$H$_{13}$ClF$_{4}$N$_{2}$
22-24,,56-57,,,Di-tert-butyl dicarbonate,C$_{10}$H$_{18}$O$_{5}$
,,,,,PF-219 061,
,,,,241.35,Ortho-DOT,C$_{12}$H$_{19}$NO$_{2}$S
between 420+620,2.45,,0.038g/100g H$_{2}$O (anhydrous and dihydrate),,Magnesium oxalate,MgC$_{2}$O$_{4}$MgC$_{2}$O$_{4}$.2H$_{2}$O(Dihydrate)
,,,,,Norgestrel,C$_{21}$H$_{28}$O$_{2}$
,,,,,Quetiapine,C$_{21}$H$_{25}$N$_{3}$O$_{2}$S
,,,,,Dinoxyline,C$_{15}$H$_{13}$NO$_{3}$
,,,,,Talaporfin,C$_{38}$H$_{41}$N$_{5}$O$_{9}$
108,,,Soluble in water,,Lyxose,C$_{5}$H$_{10}$O$_{5}$
,,,,632.43,Castalin,C$_{27}$H$_{20}$O$_{18}$
86-87,,,Insoluble,293.41,Amitraz,C$_{19}$H$_{23}$N$_{3}$
,,,,,CI-1017,C$_{18}$H$_{20}$N$_{2}$O$_{6}$
,1.06,254,,,Chavibetol,C$_{10}$H$_{12}$O$_{2}$
,,,,,Cyclobarbital,C$_{12}$H$_{16}$N$_{2}$O$_{3}$
,,,,194.139,Iduronic acid,C$_{6}$H$_{10}$O$_{7}$
286,,333,,583.36,Tungsten(V) bromide,WBr$_{5}$
-22,,106,Reacts,,Chloroacetyl chloride,C$_{2}$H$_{2}$Cl$_{2}$O
2710,3.12,,anhydrous  4.5,156.072,Calcium chromate,CaCrO$_{4}$
957,,,,539.638,Terbium(III) iodide,TbI$_{3}$
150,1.341,,N/A,190.56,Tetrakis(hydroxymethyl)phosphonium chloride,(HOCH$_{2}$)$_{4}$PCl
,,,,,Halcinonide,C$_{24}$H$_{32}$ClFO$_{5}$
,,,,,Chlorobis(cyclooctene)rhodium dimer,C$_{32}$H$_{56}$Cl$_{2}$Rh$_{2}$
,,,,,Naloxone,C$_{19}$H$_{21}$NO$_{4}$
,,,,,Abnormal cannabidiol,
,,,,,Guar gum,C$_{5}$H$_{8}$N$_{4}$O$_{12}$
,,,,,Rhynchophylline,C$_{22}$H$_{28}$N$_{2}$O$_{4}$
,,,,,Ajmalicine,C$_{21}$H$_{24}$N$_{2}$O$_{3}$
,4.049,,,,Iron(II III) sulfide,FeS.Fe$_{2}$S$_{3}$
,,225,73.9,191.09,Disodium glutamate,C$_{5}$H$_{7}$NNa$_{2}$O$_{4}$
,,,,,Bacitracin,C$_{66}$H$_{103}$N$_{17}$O$_{16}$S
,,,,,L 663536,C$_{27}$H$_{34}$ClNO$_{2}$S
,,,,,Lortalamine,C$_{15}$H$_{17}$ClN$_{2}$O$_{2}$
,,70-71,,,Fluoroacetyl chloride,C$_{2}$FOClH$_{2}$
,,,,,Psilocin,C$_{12}$H$_{16}$N$_{2}$O
,,,,209.285,Methyl-DMA,C$_{12}$H$_{19}$NO$_{2}$
,,,,,Zinc trifluoromethanesulfonate,C$_{2}$F$_{6}$O$_{6}$S$_{2}$Zn
,,,,,Anserine,C$_{10}$H$_{16}$N$_{4}$O$_{3}$
168,1.286,,,,Benzo(b)fluoranthene,C$_{20}$H$_{12}$
,,,,,Aldesulfone sodium,
,,,,399.325,AS-8112,C$_{17}$H$_{27}$BrN$_{4}$O$_{2}$
,,,,153.43,Trichlorofluorosilane,SiCl$_{3}$F
60,,,insoluble,,Bronidox,C$_{4}$H$_{6}$NO$_{4}$Br
,,,,,Aprindine,C$_{22}$H$_{30}$N$_{2}$
,,,,,CAR-226 086,
,,,,,Cefonicid,C$_{18}$H$_{18}$N$_{6}$O$_{8}$S$_{3}$
,,,,,Yttrium(III) phosphate,O$_{4}$PY
37.5,1.08,,highly soluble,,Tetraethylammonium chloride,C$_{8}$H$_{20}$ClN
,,,,,Magnesium citrate (3:2),C$_{12}$H$_{10}$Mg$_{3}$O$_{14}$
,,,,,EDDHA,C$_{18}$H$_{20}$N$_{2}$O$_{6}$
,,,,,Serotonin,C$_{10}$H$_{12}$N$_{2}$O
,,,,,Prinomastat,C$_{28}$H$_{26}$N$_{2}$O$_{10}$
28,,204-206,,124.14,Guaiacol,C$_{7}$H$_{8}$O$_{2}$
,,,,511.06,Janus Green B,C$_{30}$H$_{31}$ClN$_{6}$
200.5,1.477-1.626,,,437.15,Fipronil,C$_{12}$H$_{4}$Cl$_{2}$F$_{6}$N$_{4}$OS
,3.4,,0.72,89.86,Iron(II) hydroxide,Fe(OH)$_{2}$
100-101,,,,407.6,Chlorfenapyr,C$_{15}$H$_{11}$BrClF$_{3}$N$_{2}$O
-90,,130,,,Fluoroboric acid,HBF$_{4}$
18.6,,218,Insoluble,,Propiophenone,C$_{9}$H$_{10}$O
,,,,338.39,Licochalcone A,C$_{21}$H$_{22}$O$_{4}$
,,,,,Pentostatin,C$_{11}$H$_{16}$N$_{4}$O$_{4}$
,,,,,Robatumumab,C$_{6418}$H$_{9960}$N$_{1732}$O$_{1992}$S$_{42}$
,,,,,Pyocyanin,C$_{13}$H$_{10}$N$_{2}$O
,,,,,Tricyanoaminopropene,C$_{6}$H$_{4}$N$_{4}$
938,1.66,1372,very soluble,45.95,Lithium sulfide,Li$_{2}$S
,,,,,Remogliflozin etabonate,
,,,,,AL-LAD,C$_{22}$H$_{27}$N$_{3}$O
,,,,,Desoxymethyltestosterone,C$_{20}$H$_{32}$O
,,,,,UK-432 097,C$_{40}$H$_{47}$N$_{11}$O$_{6}$
,,,,,Finasteride,C$_{23}$H$_{36}$N$_{2}$O$_{2}$
,,,,,Rilmenidine,C$_{10}$H$_{16}$N$_{2}$O
,,,,,N N-Dimethyldopamine,C$_{10}$H$_{15}$NO$_{2}$
,,,Miscible (at 30 $^{\circ}$C),,O-Cresol,C$_{7}$H$_{8}$O
,,,,,Iron sucrose,
,,,,,Valnemulin,C$_{31}$H$_{52}$N$_{2}$O$_{5}$S
-112,0.83,34,41% (20$^{\circ}$C),,Propylene oxide,C$_{3}$H$_{6}$O
,,,,,Argininosuccinic acid,C$_{10}$H$_{18}$N$_{4}$O$_{6}$
,,,,102.089,Alpha-Ketobutyric acid,C$_{4}$H$_{6}$O$_{3}$
,,,,,Carpronium chloride,
,,,,,Methyl cellulose,variable
1646,,,,,Sodium uranate,Na$_{2}$O(UO$_{3}$)$_{2}$
,,,,,Tesetaxel,C$_{46}$H$_{60}$FN$_{3}$O$_{13}$
,,,,,Elsamitrucin,C$_{33}$H$_{35}$NO$_{13}$
,,,,,Azelnidipine,C$_{33}$H$_{34}$N$_{4}$O$_{6}$
,,,,,Difenoxin,C$_{28}$H$_{28}$N$_{2}$O$_{2}$
,,,0.1,,Bifenthrin,C$_{23}$H$_{22}$ClF$_{3}$O$_{2}$
2027,,,Insoluble,85.733,Boron arsenide,BAsorB$_{12}$As$_{2}$
,,399.2,,216.279,Tetrahydroharmine,C$_{13}$H$_{12}$N$_{2}$O
239.5,1.44,,Insoluble,262.22,Carbadox,C$_{11}$H$_{10}$N$_{4}$O$_{4}$
,,,,284.18,Trolnitrate,C$_{6}$H$_{12}$N$_{4}$O$_{9}$
,,,,,CGP-35348,C$_{8}$H$_{20}$NO$_{4}$P
,,,,432.55,Hydrocortisone 17-butyrate,C$_{25}$H$_{36}$O$_{6}$
,,,,,Beta-Hydroxybutyric acid,C$_{4}$H$_{8}$O$_{3}$
,,,,,Metenolone,C$_{20}$H$_{30}$O$_{2}$
,,,,,Difetarsone,C$_{14}$H$_{18}$As$_{2}$N$_{2}$O$_{6}$
,,,,360.229,Palladium(II) iodide,PdI$_{2}$
,,,,,Sotalol,C$_{12}$H$_{20}$N$_{2}$O$_{3}$S
,,,,168.085,Butyryl phosphate,C$_{4}$H$_{9}$O$_{5}$P
,,,,,O-1871,C$_{23}$H$_{38}$O$_{2}$
,1.119,75,,,Acryloyl chloride,C$_{3}$H$_{3}$ClO
222-225,,313.1,soluble in cold water,124.1,Pyrazinoic acid,C$_{5}$H$_{4}$N$_{2}$O$_{2}$
,,,,174.69,Scandium dodecaboride,ScB$_{12}$
,,,,,Methylphenidate,C$_{14}$H$_{19}$NO$_{2}$
,,,,,Bupivacaine,C$_{18}$H$_{28}$N$_{2}$O
,,,,,AM-694,C$_{20}$H$_{19}$FINO
,,,,,Pozanicline,C$_{11}$H$_{16}$N$_{2}$O
,,,,,Lorajmine,C$_{22}$H$_{27}$ClN$_{2}$O$_{3}$
,,,,259.28,TAPSO (buffer),C$_{7}$H$_{17}$NO$_{7}$S
267,,,,,Auramine O,C$_{17}$H$_{22}$N$_{3}$Cl
,,,,,Pectic acid,(C$_{6}$H$_{8}$O$_{6}$)$_{n}$
,,,Soluble,251.2055,Perrhenic acid,H$_{4}$O$_{9}$Re$_{2}$(SOLiD)
,,,,432.38,Isovitexin,C$_{21}$H$_{20}$O$_{10}$
2315,,4200,Insoluble,325.809,Lanthanum oxide,La$_{2}$O$_{3}$
,,,,216.279,Proxyfan,C$_{13}$H$_{16}$N$_{2}$O
,,,,364.27,Thioinosinic acid,C$_{10}$H$_{13}$N$_{4}$O$_{7}$PS
,,,,,AC-262 356,
,,,,,Lesquerolic acid,C$_{20}$H$_{38}$O$_{3}$
,,,,,Ganesha (psychedelic),C$_{13}$H$_{21}$NO$_{2}$
,,,,,Questiomycin A,C$_{12}$O$_{2}$N$_{2}$H$_{8}$
37,1.28,,,,Chlorobenzilate,C$_{16}$H$_{14}$Cl$_{2}$O$_{3}$
,,,,,Alendronic acid,
,,,,,Mepyramine,C$_{17}$H$_{23}$N$_{3}$O
,0.887,283-284.00,,222.37,Farnesol,C$_{15}$H$_{26}$O
-1,,144,,268.88,Hexachlorodisilane,Si$_{2}$Cl$_{6}$
,,,,269.17,Propatylnitrate,C$_{6}$H$_{11}$N$_{3}$O$_{9}$
,,,,62.0282,Hyponitrous acid,H$_{2}$N$_{2}$O$_{2}$
,,,,,Choline theophyllinate,
,,,,,Cytidine triphosphate,C$_{9}$H$_{16}$N$_{3}$O$_{14}$P$_{3}$
,,,Reacts,,Potassium bis(trimethylsilyl)amide,KSi$_{2}$C$_{6}$NH$_{18}$
,,,,,Bleomycin,C$_{55}$H$_{84}$N$_{17}$O$_{21}$S$_{3}$
,,,,464.46,Diffutin,C$_{23}$H$_{28}$O$_{10}$
,,,,472.48,Amurensin A,C$_{28}$H$_{24}$O$_{7}$
> 300,,,,,Oleanolic acid,C$_{30}$H$_{48}$O$_{3}$
2880,,,,,Yellowcake,"variable,seetext"
,,,,,Dolichol,C$_{100}$H$_{164}$O
,,,,180.2,Dulcin,C$_{9}$H$_{12}$N$_{2}$O$_{2}$
,,,,513.49,Carubicin,C$_{26}$H$_{27}$NO$_{10}$
,6.97,1200,insoluble,133.0688,Ruthenium(IV) oxide,RuO$_{2}$
,,,,285.4,HOT-17,C$_{14}$H$_{23}$NO$_{3}$S
,,,,,Scarlet GN,C$_{18}$H$_{14}$N$_{2}$Na$_{2}$O$_{7}$S$_{2}$
,,,,451.37,Capravirine,C$_{20}$H$_{20}$Cl$_{2}$N$_{4}$O$_{2}$S
,,,,,Detomidine,C$_{12}$H$_{14}$N$_{2}$
,,,,439.177,Mercury monofluoride,Hg$_{2}$F$_{2}$
,,,insoluble,191.148,Cerium(III) hydroxide,Ce(OH)$_{3}$
,,,,,Sodium decavanadate,Na$_{6}$(V$_{10}$O$_{28}$)
,,,,,Desvenlafaxine,C$_{16}$H$_{25}$NO$_{2}$
,,,decomposition,,Sodium cyclopentadienide,C$_{5}$H$_{5}$Na
,,,,78.841,Titanium(III) phosphide,TiP
113.5,,,insoluble,,Haloprogin,C$_{9}$H$_{4}$Cl$_{3}$IO
,,,,,Docetaxel,C$_{43}$H$_{53}$NO$_{14}$
690,4.58,700,Decomposes violently,145.865,Silver(II) fluoride,AgF$_{2}$
,,,,,Polyglutamic acid,(C$_{5}$H$_{7}$NO$_{3}$)$_{n}$
,,54-55,,,Trifluoromethyltrimethylsilane,C$_{4}$H$_{9}$F$_{3}$Si
,,,,,Racecadotril,C$_{21}$H$_{23}$NO$_{4}$S
,,,,,Talastine,C$_{19}$H$_{21}$N$_{3}$O
,,,,,JTC-801,C$_{26}$H$_{25}$N$_{3}$O$_{2}$
,,,,297.348,Oripavine,C$_{18}$H$_{19}$NO$_{3}$
,,,,,Lubiprostone,C$_{20}$H$_{32}$F$_{2}$O$_{5}$
178,,,,272.84,Ferrocenium tetrafluoroborate,C$_{10}$H$_{10}$BFeF$_{4}$
,,,,,Tilbroquinol,C$_{10}$H$_{8}$BrNO
,,,,,Nitrite,NO$^{2-}$
,,,,,Superphane,C$_{24}$H$_{24}$
,,,,310.51,Vaccenyl acetate,C$_{20}$H$_{38}$O$_{2}$
,,,,,Niflumic acid,
,,101.4,Soluble,,Heavy water,D$_{2}$O
377,2.798,,,123.861,Titanium tetrafluoride,TiF$_{4}$
,,,,,Donepezil,C$_{24}$H$_{29}$NO$_{3}$
,,,,318.45,Galanolactone,C$_{20}$H$_{30}$O$_{3}$
,,,,,Eprosartan,C$_{23}$H$_{24}$N$_{2}$O$_{4}$S
,,,,,Pentylenetetrazol,C$_{6}$H$_{10}$N$_{4}$
,,,,261.32,Hydroxytropacocaine,C$_{15}$H$_{19}$NO$_{3}$
,,,,,Fenozolone,C$_{11}$H$_{12}$N$_{2}$O$_{2}$
,,,,3527.85,Leumorphin,C$_{161}$H$_{236}$N$_{42}$O$_{48}$
106,,,,,AL-38022A,C$_{13}$H$_{17}$N$_{3}$O
,,,,,Cilazapril,C$_{22}$H$_{31}$N$_{3}$O$_{5}$
,,,,,Alfuzosin,C$_{19}$H$_{27}$N$_{5}$O$_{4}$
,,,,,NS-11394,C$_{23}$H$_{19}$N$_{3}$O
,,,,,Tetrahydropalmatine,C$_{21}$H$_{25}$NO$_{4}$
138,,594,,,Tralomethrin,C$_{22}$H$_{19}$Br$_{4}$NO$_{3}$
1567,4.86,2847,insoluble,228.812,Manganese(II III) oxide,Mn$_{3}$O$_{4}$
,,,,,Gymnopusin,C$_{17}$H$_{16}$O$_{5}$
,,,,,Graphane,(CH)$_{n}$
,,708.3,,,Diatoxanthin,C$_{40}$H$_{54}$O$_{2}$
111,1.489,290-295,2350,182.17,Sorbitol,C$_{6}$H$_{14}$O$_{6}$
230-233,,,,,Trigonelline,C$_{7}$H$_{7}$O$_{2}$N
152-154,,,"in MeOH, DMF, DMSO",,Bromobimane,C$_{10}$H$_{11}$BrN$_{2}$O$_{2}$
,,296,,229.3,Icaridin,C$_{12}$H$_{23}$NO$_{3}$
,,,,168.2,Beta-Carboline,C$_{11}$H$_{8}$N$_{2}$
,,,,,Methylbenzylpiperazine,C$_{12}$H$_{18}$N$_{2}$
,,,,,Uroporphyrinogen I,C$_{40}$H$_{44}$N$_{4}$O$_{16}$
,,,,274.26,Fisetinidol,C$_{15}$H$_{14}$O$_{5}$
128,,,,,Allose,C$_{6}$H$_{12}$O$_{6}$
1088,,,22.2,,Sodium silicate,Na$_{2}$SiO$_{3}$
,,,,,Propylisopropyltryptamine,C$_{16}$H$_{24}$N$_{2}$
,,,,,AB-001,C$_{24}$H$_{31}$NO
2420,7.407,,insoluble,362.5,Gadolinium(III) oxide,Gd$_{2}$O$_{3}$
,,,,270.23,Norwogonin,C$_{15}$H$_{10}$O$_{5}$
,,,,,Diloxanide furoate,
,,,,,Aminopropionitrile,C$_{3}$H$_{6}$N$_{2}$
,,,,,Filaminast,C$_{15}$H$_{20}$N$_{2}$O$_{4}$
,7.2,,Insoluble,137.65,Nickel selenide,NiSe
,,,,,Methyl aminolevulinate,
,,,,205.343,Lipoamide,C$_{8}$H$_{15}$NOS$_{2}$
170,7.6,298,very slightly soluble,232.423,Gold(I) chloride,AuCl
,,,,,Vilanterol,C$_{24}$H$_{33}$Cl$_{2}$NO$_{5}$
,,,,,Polygodial,C$_{15}$H$_{22}$O$_{2}$
,,,,115.1,Methylisothiazolinone,C$_{4}$H$_{5}$NOS
,,,,,Neo-Inositol,C$_{6}$H$_{12}$O$_{6}$
360,,,8.43,,Mitomycins,C$_{15}$H$_{18}$N$_{4}$O$_{5}$
,,,,,Hexamethonium,C$_{12}$H$_{30}$N$_{2}$
,,,,,Aptazapine,C$_{16}$H$_{19}$N$_{3}$
1418,3.18,2533,0.0015,,Calcium fluoride,CaF$_{2}$
,,,,,Clonidine,C$_{9}$H$_{9}$Cl$_{2}$N$_{3}$
,1.25,105-107,,,Adipoyl chloride,C$_{6}$H$_{8}$Cl$_{2}$O$_{2}$
,,,,,Sonepiprazole,C$_{21}$H$_{27}$N$_{3}$O$_{3}$S
,,,,,Trimeperidine,C$_{17}$H$_{25}$NO$_{2}$
,,,,,Nitrosourea,CH$_{3}$N$_{3}$O$_{2}$
,,,,,Domiodol,C$_{5}$H$_{9}$IO$_{3}$
,,,~ 30,,Amido black 10B,C$_{22}$H$_{14}$N$_{6}$Na$_{2}$O$_{9}$S$_{2}$
,,,,,Lubazodone,C$_{14}$H$_{18}$FNO$_{2}$
,,,,,Sec-Butyllithium,C$_{4}$H$_{9}$Li
178,1.74,,,300.59,Captan,C$_{9}$H$_{8}$Cl$_{3}$NO$_{2}$S
,,,,268.27,Acetylcarnosine,C$_{11}$H$_{16}$N$_{4}$O$_{4}$
,,,,,Artemether,C$_{16}$H$_{26}$O$_{5}$
126,,,3,,Thiourea dioxide,CH$_{4}$N$_{2}$O$_{2}$S
,,,,,Polychlorotrifluoroethylene,(C$_{2}$ClF$_{3}$)$_{n}
,5.1,,,136.612,Beryllium telluride,BeTe
126,,240,63g/100ml 20$^{\circ}$C,,Ammonium bifluoride,H$_{5}$F$_{2}$N
,,,,,Betaxolol,C$_{18}$H$_{29}$NO$_{3}$
81.5-83,1.34,265,,203.02,Terephthaloyl chloride,C$_{8}$H$_{4}$Cl$_{2}$O$_{2}$
,,,,,Rhamnolipid,C$_{32}$H$_{58}$O$_{13}$
,,,,458.32,Flavogallonic acid,C$_{21}$H$_{14}$O$_{12}$
,,,,,Gefarnate,C$_{27}$H$_{44}$O$_{2}$
,,,,,Nelfinavir,C$_{32}$H$_{45}$N$_{3}$O$_{4}$S
,,,,294.39,IDFP,C$_{15}$H$_{32}$FO$_{2}$P
,,,,,Eterobarb,C$_{16}$H$_{20}$N$_{2}$O$_{5}$
260,,,Reacts,68.05,Sodium ethoxide,C$_{2}$H$_{5}$ONa
,,,,,Posaconazole,C$_{37}$H$_{42}$F$_{2}$N$_{8}$O$_{4}$
,,,,,Clomipramine,C$_{19}$H$_{23}$ClN$_{2}$
,,,,,Cefteram,C$_{16}$H$_{17}$N$_{9}$O$_{5}$S$_{2}$
,,,,,Taspoglutide,C$_{152}$H$_{232}$N$_{40}$O$_{45}$
,,,,213.23,Fenamic acid,C$_{13}$H$_{11}$NO$_{2}$
,,,,,Nitrazepate,C$_{16}$H$_{11}$N$_{3}$O$_{5}$
,,,,,CX614,C$_{13}$H$_{13}$NO$_{4}$
,,,,,Ethyl carfluzepate,
,,,,565.618,Hemorphin-4,C$_{29}$H$_{35}$N$_{5}$O$_{7}$
,,,Miscible.,,Hydrofluoric acid,HF(aq)
554,1.986,1169,very soluble,47.01,Beryllium fluoride,BeF$_{2}$
220,,,<0.5,,Pentetic acid,C$_{14}$H$_{23}$N$_{3}$O$_{10}$
100-105,,,,,Harmalol,C$_{12}$H$_{12}$N$_{2}$O
,,,,,Iproclozide,C$_{11}$H$_{15}$ClN$_{2}$O$_{2}$
,,,,,Pirisudanol,C$_{16}$H$_{24}$N$_{2}$O$_{6}$
,,,,919.95,Beta-Amanitin,C$_{39}$H$_{53}$N$_{9}$O$_{15}$S
4,1.113,138,Miscible,,Diepoxybutane,C$_{4}$H$_{6}$O$_{2}$
120,1.98,,80,228.18,Ammonium persulfate,(NH$_{4}$)$_{2}$S$_{2}$O$_{8}$
154,1.32,192,hydrolyzes,,Cyanuric chloride,C$_{3}$Cl$_{3}$N$_{3}$
,,,,338.98,Clofilium,C$_{21}$H$_{37}$ClN+
,,,,,Pirprofen,C$_{13}$H$_{14}$ClNO$_{2}$
36-38,,,,156.25,TEMPO,C$_{9}$H$_{18}$NO
,,,,,Fabomotizole,C$_{15}$H$_{21}$N$_{3}$O$_{2}$S
,,,,,Dextran,H(C$_{6}$H$_{10}$O$_{5}$)$_{x}$OH
,,,,,Picein,C$_{14}$H$_{18}$O$_{7}$
,,,,,Thiopropamine,C$_{7}$H$_{11}$NS
,,,,,Semorphone,C$_{19}$H$_{23}$NO$_{5}$
-103.5,,55-57,Decompose,,Chloromethyl methyl ether,C$_{2}$H$_{5}$ClO
,,,,,Chlorobis(cyclooctene)iridium dimer,C$_{32}$H$_{56}$Cl$_{2}$Ir$_{2}$
,,,,879.62,Glutaconyl-CoA,C$_{26}$H$_{40}$N$_{7}$O$_{19}$P$_{3}$S
,,,,,Clo$\beta$sol propionate,C$_{25}$H$_{32}$ClFO$_{5}$
,,,,,Chlorphenesin,C$_{10}$H$_{12}$ClNO$_{4}$
,,,,182.172,Galactitol,C$_{6}$H$_{14}$O$_{6}$
,,,,,Methylglucoside,C$_{7}$H$_{14}$O$_{6}$
,,,,,Ioflupane (123I),
$\geq$300,1.93,,,208.98,Chloranilic acid,C$_{6}$H$_{2}$Cl$_{2}$O$_{4}$
682,4.115,1251,367,151.9,Caesium fluoride,CsF
119.5,3.5,310.6,hydrolysis to HTcO$_{4}$,307.81,Technetium(VII) oxide,Tc$_{2}$O$_{7}$
210-213,,,,,P-Coumaric acid,C$_{9}$H$_{8}$O$_{3}$
,,,,,Flumequine,C$_{14}$H$_{12}$FNO$_{3}$
,,,,,Bepridil,C$_{24}$H$_{34}$N$_{2}$O
183.83,1.266,,2.11,,Pantothenic acid,C$_{9}$H$_{17}$NO$_{5}$
,,,,,Lofendazam,C$_{15}$H$_{13}$ClN$_{2}$O
,,,7-Jun,,Evofosfamide,C$_{9}$H$_{16}$Br$_{2}$N$_{5}$O$_{4}$P
,,,,,Etoxeridine,C$_{18}$H$_{27}$NO$_{4}$
,,,,,Clofarabine,C$_{10}$H$_{11}$ClFN$_{5}$O$_{3}$
,,,,,Flumazenil,C$_{15}$H$_{14}$FN$_{3}$O$_{3}$
,,,,,Alpha-Pyrrolidinopropiophenone,C$_{13}$H$_{17}$NO
133,,,7.7,,Acibenzolar-S-methyl,C$_{8}$N$_{2}$H$_{6}$S$_{2}$O
,,,,,WAY-629,C$_{15}$H$_{18}$N$_{2}$
,,,,,Mycolactone,C$_{44}$H$_{70}$O$_{9}$
,,,,,Phenpromethamine,C$_{10}$H$_{15}$N
,,70-71,organic solvents,208.06,Hexafluoroacetylacetone,C$_{5}$H$_{2}$F$_{6}$O$_{2}$
,,,,,Hydroxyethyl methyl cellulose,variable
,,,,,Nefazodone,C$_{25}$H$_{32}$ClN$_{5}$O$_{2}$
,,233,,134.10835,Sodium sorbate,C$_{6}$H$_{7}$NaO$_{2}$
158-160,,,,,Tioxolone,C$_{7}$H$_{4}$O$_{3}$S
,,,,,PCCG-4,C$_{12}$H$_{13}$NO$_{4}$
2.5-3.5,0.95,200-220,,430.71,Alpha-Tocopherol,C$_{29}$H$_{50}$O$_{2}$
,,,,,Cilofungin,C$_{49}$H$_{71}$N$_{7}$O$_{17}$
160-165,1.54,,1.08,,Maltose,C$_{12}$H$_{22}$O
,,,,,Tucotuzumab celmoleukin,
,0.794,166-168,,,Myrcene,C$_{10}$H$_{16}$
,,,,,Lanicemine,C$_{13}$H$_{14}$N$_{2}$
,,,,295.376,Nuciferine,C$_{19}$H$_{21}$NO$_{2}$
109,,,,,Loxapine,C$_{18}$H$_{18}$ClN$_{3}$O
,,,,253.34,VE (nerve agent),C$_{10}$H$_{24}$NO$_{2}$PS
,,,,346.28,Spinacetin,C$_{17}$H$_{14}$O$_{8}$
,,,,,Voacamine,C$_{43}$H$_{52}$N$_{4}$O$_{5}$
,,83-84,,153.18,Butyl cyanoacrylate,C$_{8}$H$_{11}$NO$_{2}$
96,1.1,,,,Poly(N-isopropylacrylamide),(C$_{6}$H$_{11}$NO)$_{n}$
254,1.274,448,Insoluble,,Chrysene,C$_{18}$H$_{12}$
102,1.031,252,soluble in hot water,108.1,O-Phenylenediamine,C$_{6}$H$_{8}$N$_{2}$
,,,,,PSB-SB-1202,C$_{23}$H$_{26}$O$_{4}$
169,,,,,Norvinisterone,C$_{20}$H$_{28}$O$_{2}$
26,0.791,,0.031,,Bis(trimethylsilyl)acetylene,C$_{8}$H$_{18}$Si$_{2}$
19,,187-188,small in water,,Cyclohexylmethanol,C$_{7}$H$_{14}$O
,,,,280.31,Phaseic acid,C$_{15}$H$_{20}$O$_{5}$
,,,,,Megazol,chemical_formulaC$_{6}$H$_{6}$N$_{6}$O$_{2}$S
,,228,,,Octamoxin,C$_{8}$H$_{20}$N$_{2}$
,,,,,Pralidoxime,C7H9N2O1charge+
93,1.04,310,no,188.6,CS gas (data page),C$_{10}$H$_{5}$ClN$_{2}$
164-165,,205-207,1,137.179,Tyramine,C$_{8}$H$_{11}$NO
-70,0.78,214,50,,Tributylamine,C$_{12}$H$_{27}$N
,,,,,Androstane,C$_{19}$H$_{32}$
,,,,314.29,Coeloginin,C$_{17}$H$_{14}$O$_{6}$
,,,Miscible,,Ethylamine,C$_{2}$H$_{7}$N
,,,,,Selamectin,C$_{43}$H$_{63}$NO