Name,formula,Property Molar Mass,Property Molar Mass units,Property Melting Point,Property Melting Point units,Property Density,Property Density units,Property Boiling Point,Property Boiling Point units,Property Solubility
Altanserin,C$_{22}$H$_{22}$FN$_{3}$O$_{2}$S,,,,,,,,,
Phenacyl bromide,C$_{8}$H$_{7}$BrO,,,50,$^{\circ}$C,,,136,$^{\circ}$C,
TCPy,C$_{5}$H$_{2}$Cl$_{3}$NO,,,172-174,$^{\circ}$C,,,254.8,$^{\circ}$C,
Saflufenacil,C$_{17}$H$_{17}$ClF$_{4}$N$_{4}$O$_{5}$S,,,189.9,$^{\circ}$C,,,,,2100
Nifurtimox,C$_{10}$H$_{13}$N$_{3}$O$_{5}$S,,,,,,,,,
Etazolate,C$_{14}$H$_{19}$N$_{5}$O$_{2}$,,,,,,,,,
Multistriatin,C$_{10}$H$_{18}$O$_{2}$,,,,,,,207.1,$^{\circ}$C,
Alfacalcidol,C$_{27}$H$_{44}$O$_{2}$,400.64,g/mol,,,,,,,
TP-003,C$_{23}$H$_{16}$F$_{3}$N$_{3}$O,,,,,,,,,
Troparil,C$_{16}$H$_{21}$NO$_{2}$,,,190,$^{\circ}$C,,,,,
Isoxathion,C$_{13}$H$_{16}$NO$_{4}$PS,313.31,g/mol,,,,,,,
SB-206553,C$_{17}$H$_{16}$N$_{4}$O,,,,,,,,,
Eletefine,C$_{19}$H$_{19}$NO$_{5}$,343.357,g/mol,,,,,,,
Dimethyldiethoxysilane,C$_{6}$H$_{16}$O$_{2}$Si,,,-87,$^{\circ}$C,,,114,$^{\circ}$C,
Luteolin-7-O-glucuronide,C$_{21}$H$_{18}$O$_{12}$,462.36,g/mol,,,,,,,
Phenoxyethanol,C$_{8}$H$_{10}$O$_{2}$,,,11,$^{\circ}$C,1.102,g/cm$^{3}$,247,$^{\circ}$C,
Guanidinium thiocyanate,C$_{2}$H$_{6}$N$_{4}$S,,,,,,,,,
Cyclopentadecanolide,C$_{15}$H$_{28}$O$_{2}$,,,37,$^{\circ}$C,,,169,$^{\circ}$C,
X-gal,C$_{14}$H$_{15}$BrClNO$_{6}$,,,,,,,,,
Astringin,C$_{20}$H$_{22}$O$_{9}$,406.38,g/mol,,,,,,,
ChEBI,scopeChemicalEntitiesofBiologicalInterest,,,,,,,,,
Trichloroacetonitrile,C$_{2}$Cl$_{3}$N,,,,,,,83,$^{\circ}$C,insoluble
Cyclopropanone,C$_{3}$H$_{4}$O,,,-90,$^{\circ}$C,,,50-53,$^{\circ}$C,
Ethenzamide,C$_{9}$H$_{11}$NO$_{2}$,,,,,,,,,
Neramexane,C$_{11}$H$_{23}$N,,,,,,,,,
Butanone,C$_{4}$H$_{8}$O,,,-86,$^{\circ}$C,0.8050,g/cm$^{3}$,79.64,$^{\circ}$C,27.5
N-(S)-Fenchyl-1-(2-morpholinoethyl)-7-methoxyindole-3-carboxamide,C$_{26}$H$_{37}$N$_{3}$O$_{3}$,,,,,,,,,
Remimazolam,C$_{21}$H$_{19}$BrN$_{4}$O$_{2}$,,,,,,,,,
Diamantane,C$_{14}$H$_{20}$,,,244.73,$^{\circ}$C,,,,,sparingly soluble (8.1 x 10$^{-4}$ g L$^{-1}$)
Zalcitabine,C$_{9}$H$_{13}$N$_{3}$O$_{3}$,,,,,,,,,
Rociverine,C$_{20}$H$_{37}$NO$_{3}$,,,,,,,,,
Pimozide,C$_{28}$H$_{29}$F$_{2}$N$_{3}$O,,,,,,,,,
Mebolazine,C$_{42}$H$_{68}$N$_{2}$O$_{2}$,633.00,g/mol,,,,,,,
Nitrosylazide,N$_{4}$O,,,,,,,,,
Caesium bicarbonate,CsHCO$_{3}$,193.922,g/mol,,,,,,,
Macbecin,C$_{30}$H$_{44}$N$_{2}$O$_{8}$,,,,,,,,,
Carpaine,C$_{28}$H$_{50}$N$_{2}$O$_{4}$,478.70,g/mol,121,$^{\circ}$C,,,,,
Pentachlorofluoroethane,C$_{2}$FCl$_{5}$,,,101.5,$^{\circ}$C,,,135,$^{\circ}$C,
Neticonazole,C$_{17}$H$_{22}$N$_{2}$OS,,,,,,,,,
Benzopyran,C$_{9}$H$_{8}$O,,,,,,,,,
Sulfur trioxide pyridine complex,C$_{5}$H$_{5}$NSO$_{3}$,159.16,g/mol,,,,,,,
Ganoderic acid,C$_{30}$H$_{44}$O$_{7}$,,,,,,,,,
ACES (buffer),C$_{4}$H$_{10}$N$_{2}$O$_{4}$S,,,,,,,,,
Patulin,C$_{7}$H$_{6}$O$_{4}$,154.12,g/mol,110,$^{\circ}$C,,,,,Soluble
Fenpentadiol,C$_{12}$H$_{17}$ClO$_{2}$,,,,,,,,,
Sulfadoxine,C$_{12}$H$_{14}$N$_{4}$O$_{4}$S,,,,,,,,,
Vernakalant,C$_{20}$H$_{31}$NO$_{4}$,,,,,,,,,
Terbium silicide,TbSi$_{2}$,215.09,g/mol,,,,,,,Insoluble
Krogmann's salt,K$_{2}$Pt(CN)$_{4}$Br$_{0.3}$,401.3227,g/mol,,,,,,,
Ionomycin,C$_{41}$H$_{72}$O$_{9}$,,,,,,,,,
Nonoxynol-9,C$_{33}$H$_{60}$O$_{10}$,,,,,,,,,
Aesculin,C$_{15}$H$_{16}$O$_{9}$,340.282,g/mol,,,,,,,
Tellurous acid,H$_{2}$TeO$_{3}$,,,,,~ 3,g/cm$^{3}$,,,negligible
Dimanganese decacarbonyl,C$_{10}$O$_{10}$Mn$_{2}$,389.98,g/mol,154,$^{\circ}$C,1.750,g/cm$^{3}$,,,insoluble
UB-165,C$_{13}$H$_{15}$ClN$_{2}$,,,,,,,,,
Difluprednate,C$_{27}$H$_{34}$F$_{2}$O$_{7}$,,,,,,,,,
Thiophosphoryl chloride,Cl$_{3}$PS,169.4,g/mol,-35,$^{\circ}$C,1.67,g/cm$^{3}$,125,$^{\circ}$C,Reacts
CuSil,Ag(71-73%)Cu(27-29%),,,780,$^{\circ}$C,,,,,
Ethylmorphine,C$_{19}$H$_{23}$NO$_{3}$,,,,,,,,,
Phenol,C$_{6}$H$_{6}$O,,,40.5,$^{\circ}$C,1.07,g/cm$^{3}$,181.7,$^{\circ}$C,8.3
Nifuroxazide,C$_{12}$H$_{9}$N$_{3}$O$_{5}$,,,,,,,,,
Trinitroanisole,C$_{7}$H$_{5}$N$_{3}$O$_{7}$,,,68,$^{\circ}$C,1.61,g/cm$^{3}$,,,"insoluble in water, soluble in diethyl ether and hot ethanol"
Betulin,C$_{30}$H$_{50}$O$_{2}$,,,256-257,$^{\circ}$C,,,,,
Torulene,C$_{40}$H$_{54}$,,,,,,,,,
Digallane,Ga$_{2}$H$_{6}$,145.494,g/mol,,,,,,,
Pinazepam,C$_{18}$H$_{13}$ClN$_{2}$O,,,,,,,,,
Pigment Red 179,C$_{26}$H$_{14}$N$_{2}$O$_{4}$,,,,,,,,,
Chromium hexacarbonyl,C$_{6}$CrO$_{6}$,220.057,g/mol,90,$^{\circ}$C,,,210,$^{\circ}$C,insoluble
Chloroxuron,C$_{15}$H$_{15}$ClN$_{2}$O$_{2}$,,,151,$^{\circ}$C,1.27,g/cm$^{3}$,,,
Diphenolic acid,C$_{17}$H$_{18}$O$_{4}$,,,168,$^{\circ}$C,,,507,$^{\circ}$C,
Medrysone,C$_{22}$H$_{32}$O$_{3}$,,,,,,,,,
Thunberginol F,C$_{15}$H$_{10}$O$_{5}$,270.23,g/mol,,,,,,,
Scandium oxide,Sc$_{2}$O$_{3}$,137.910,g/mol,2485,$^{\circ}$C,3.86,g/cm$^{3}$,,,insoluble in water
Benzoquinonetetracarboxylic acid,C$_{10}$H$_{4}$O$_{10}$,284.14,g/mol,,,,,,,
Picramic acid,C$_{6}$H$_{5}$N$_{3}$O$_{5}$,199.12,g/mol,169,$^{\circ}$C,1.749,g/cm$^{3}$,386.3,$^{\circ}$C,
Doxorubicin,C$_{27}$H$_{29}$NO,,,,,,,,,
Dimethocaine,C$_{16}$H$_{26}$N$_{2}$O$_{2}$,,,,,,,,,
Phenothrin,C$_{23}$H$_{26}$O$_{3}$,350.451,g/mol,<25,$^{\circ}$C,,,>290,$^{\circ}$C,
Chromium carbide,Cr$_{3}$C$_{2}$,180.009,g/mol,1895,$^{\circ}$C,6.68,g/cm$^{3}$,3800,$^{\circ}$C,reacts
Magnesium diboride,MgB$_{2}$,45.93,g/mol,830,$^{\circ}$C,2.57,g/cm$^{3}$,,,
Oxyclozanide,C$_{13}$H$_{6}$Cl$_{5}$NO$_{3}$,401.46,g/mol,,,,,,,
APICA (drug),,,,,,,,,,
Allyl bromide,C$_{3}$H$_{5}$Br,120.99,g/mol,-119,$^{\circ}$C,1.398,g/cm$^{3}$,71,$^{\circ}$C,Very slightly soluble
Manganese heptoxide,Mn$_{2}$O$_{7}$,221.87,g/mol,5.9,$^{\circ}$C,2.79,g/cm$^{3}$,explodes on heating  sublimes at-10,$^{\circ}$C,"decomposes to permanganic acid, HMnO4"
Homocitric acid,C$_{7}$H$_{10}$O$_{7}$,,,,,,,,,
Febarbamate,C$_{20}$H$_{27}$N$_{3}$O$_{6}$,,,,,,,,,
Abanoquil,C$_{22}$H$_{25}$N$_{3}$O$_{4}$,,,,,,,,,
Aristolochic acid,C$_{17}$H$_{11}$NO$_{7}$,,,260-265,$^{\circ}$C,,,,,Slightly soluble
Dienestrol,C$_{18}$H$_{18}$O$_{2}$,,,,,,,,,
Ammonium perchlorate,NH$_{4}$ClO$_{4}$,117.49,g/mol,,,1.95,g/cm$^{3}$,,,11.56
L-687 384,,,,,,,,,,
Polyvinylpyrrolidone,(C$_{6}$H$_{9}$NO)$_{n}$,,,150-180,$^{\circ}$C,1.2,g/cm$^{3}$,,,
LY-334370,C$_{21}$H$_{22}$FN$_{3}$O,351.42,g/mol,,,,,,,
Acridine yellow,C$_{15}$H$_{15}$N$_{3}$,273.30,g/mol,,,,,,,
Oxirene,C$_{2}$H$_{2}$O,42.04,g/mol,,,,,,,
Prednylidene,C$_{22}$H$_{28}$O$_{5}$,,,,,,,,,
Hexamethylbenzene,C$_{12}$H$_{18}$,,,165,$^{\circ}$C,,,265.2,$^{\circ}$C,
Fast Sulphon Black F,C$_{30}$H$_{20}$N$_{4}$O$_{11}$S$_{3}$,,,,,,,,,
Guanethidine,C$_{10}$H$_{22}$N$_{4}$,,,,,,,,,
Micafungin,C$_{56}$H$_{71}$N$_{9}$O$_{23}$S,,,,,,,,,
Silver selenite,Ag$_{2}$SeO$_{3}$,342.69,g/mol,530,$^{\circ}$C,5.930,g/cm$^{3}$,decomposes above 550,$^{\circ}$C,slightly soluble
Aluminium silicate,Al$_{2}$SiO$_{5}$,,,,,,,,,
AM-1235,C$_{24}$H$_{21}$FN$_{2}$O$_{3}$,,,,,,,,,
Pregomisin,C$_{22}$H$_{30}$O$_{6}$,,,,,,,,,
Tariquidar,C$_{38}$H$_{38}$N$_{4}$O$_{6}$,,,,,,,,,
JNJ-5207852,C$_{20}$H$_{32}$N$_{2}$O,316.480,g/mol,,,,,,,
Idoxuridine,C$_{9}$H$_{11}$IN$_{2}$O$_{5}$,,,,,,,,,
Silperisone,C$_{15}$H$_{24}$FNSi,,,,,,,,,
Acrylonitrile butadiene styrene,(C$_{8}$H$_{8}$.C$_{4}$H$_{6}$.C$_{3}$H$_{3}$N)$_{n}$,,,,,,,,,Insoluble in water
Potassium chromate,K$_{2}$CrO$_{4}$,,,968,$^{\circ}$C,2.7320,g/cm$^{3}$,1000,$^{\circ}$C,62.9
Erythritol tetranitrate,C$_{4}$H$_{6}$N$_{4}$O$_{12}$,302.11,g/mol,61,$^{\circ}$C,,,Decomposes at 160,$^{\circ}$C,
Sodium arsenite,NaAsO$_{2}$,129.911,g/mol,550,$^{\circ}$C,,,,,156
Cefuroxime,C$_{16}$H$_{16}$N$_{4}$O$_{8}$S,,,,,,,,,
Technetium (99mTc) mebrofenin,,,,,,,,,,
Pholedrine,C$_{10}$H$_{15}$NO,,,,,,,,,
Alverine,C$_{20}$H$_{27}$N,,,,,,,,,
Perylene,C$_{20}$H$_{12}$,,,276-279,$^{\circ}$C,,,,,
Palladium(II) nitrate,Pd(NO$_{3}$)$_{2}$,230.43,g/mol,Decomposes >100,$^{\circ}$C,,,,,Soluble
Phenethylamine,C$_{8}$H$_{11}$N,,,,,,,,,
Mutagen X,C$_{5}$H$_{3}$Cl$_{3}$O$_{3}$,217.43,g/mol,,,,,,,
Triplatin tetranitrate,,,,,,,,,,
Oct-1-en-3-one,C$_{8}$H$_{14}$O,126.20,g/mol,,,,,,,
Sodium hypophosphite,NaPO$_{2}$H$_{2}$,87.98,g/mol,90,$^{\circ}$C,0.8,g/cm$^{3}$,,,soluble
Glipizide,C$_{21}$H$_{27}$N$_{5}$O$_{4}$S,,,,,,,,,
Tetrahydromethanopterin,C$_{30}$H$_{45}$N$_{6}$O$_{16}$P,,,,,,,,,
Dibromofluoromethane,CHBr$_{2}$F,191.83,g/mol,-78,$^{\circ}$C,,,64.9,$^{\circ}$C,Insoluble
Phenescaline,C$_{18}$H$_{23}$NO$_{3}$,301.380,g/mol,,,,,,,
Melevodopa,C$_{10}$H$_{13}$NO$_{4}$,,,,,,,,,
Diphenidol,C$_{21}$H$_{27}$NO,,,,,,,,,
Benzene,C$_{6}$H$_{6}$,,,,,0.8765(20),g/cm$^{3}$,,,
Formaldehyde,CH$_{2}$O,,,-92,$^{\circ}$C,0.8153,g/cm$^{3}$,-19,$^{\circ}$C,400
Mephentermine,C$_{11}$H$_{17}$N,,,,,,,,,
Fructose 1-phosphate,C$_{6}$H$_{13}$O$_{9}$P,,,,,,,,,
Ytterbium(III) oxide,Yb$_{2}$O$_{3}$,394.08,g/mol,2355,$^{\circ}$C,,,4070,$^{\circ}$C,Insoluble
Indapamide,C$_{16}$H$_{16}$ClN$_{3}$O$_{3}$S,,,,,,,,,
Flupirtine,C$_{15}$H$_{17}$FN$_{4}$O$_{2}$,,,,,,,,,
Valsartan,C$_{24}$H$_{29}$N$_{5}$O$_{3}$,,,,,,,,,
Lazabemide,C$_{8}$H$_{10}$ClN$_{3}$O,,,,,,,,,
Ferric ammonium oxalate,C$_{6}$H$_{12}$FeN$_{3}$O$_{12}$,,,,,,,,,Soluble
Macrophomic acid,C$_{11}$H$_{12}$O$_{4}$,208.21,g/mol,,,,,385.3$\pm$42.0,$^{\circ}$C,
Magellanine,C$_{17}$H$_{25}$NO$_{2}$,,,165-166,$^{\circ}$C,,,,,
Norcodeine,C$_{17}$H$_{19}$NO$_{3}$,,,,,,,,,
Oxiconazole,C$_{18}$H$_{13}$Cl$_{4}$N$_{3}$O,,,,,,,,,
Flavoxanthin,C$_{40}$H$_{56}$O$_{3}$,584.87,g/mol,184,$^{\circ}$C,,,,,
Dehydrohexahydroxydiphenic acid,C$_{14}$H$_{10}$O$_{11}$,354.22,g/mol,,,,,,,
Silver iodate,AgIO$_{3}$,282.77,g/mol,~200,$^{\circ}$C,5.525,g/cm$^{3}$,~1150,$^{\circ}$C,0.003
Aminomethylphosphonic acid,CH$_{6}$NO$_{3}$P,,,338-344,$^{\circ}$C,,,,,
Phenyllithium,LiC$_{6}$H$_{5}$,,,,,,,140,$^{\circ}$C,Reacts
Methyl jasmonate,C$_{13}$H$_{20}$O$_{3}$,224.3,g/mol,,,,,88-90,$^{\circ}$C,
Bismuthide,Bi$^{3-}$,,,,,,,,,
Fluspirilene,C$_{29}$H$_{31}$F$_{2}$N$_{3}$O,,,,,,,,,
Metronidazole,C$_{6}$H$_{9}$N$_{3}$O$_{3}$,,,,,,,,,
Platinum pentafluoride,F$_{5}$Pt,,,75-6,$^{\circ}$C,,,300-5,$^{\circ}$C,
Phenazine,C$_{12}$H$_{8}$N$_{2}$,180.21,g/mol,174-177,$^{\circ}$C,,,357.2,$^{\circ}$C,insoluble in water
Isophthalic acid,C$_{6}$H$_{4}$(COOH)$_{2}$,166.14,g/mol,,,,,,,Insoluble in water
Zinc peroxide,ZnO$_{2}$,97.408,g/mol,212,$^{\circ}$C,1.57,g/cm$^{3}$,,,
Fuchsine acid,C$_{20}$H$_{17}$N$_{3}$Na$_{2}$O$_{9}$S$_{3}$,585.538,g/mol,,,,,,,
N-Butanol,C$_{4}$H$_{10}$O,,,-89.8,$^{\circ}$C,,,117.7,$^{\circ}$C,73
Trional,C$_{8}$H$_{18}$O$_{4}$S$_{2}$,,,,,,,,,
Heptadecanoic acid,C$_{17}$H$_{34}$O$_{2}$,270.45,g/mol,61.3,$^{\circ}$C,0.853,g/cm$^{3}$,227,$^{\circ}$C,insoluble
Sophoradin,C$_{30}$H$_{36}$O$_{4}$,460.60,g/mol,,,,,,,
Gold(I) bromide,AuBr,276.87,g/mol,165,$^{\circ}$C,7.9,g/cm$^{3}$,,,
Penicillamine,C$_{5}$H$_{11}$NO$_{2}$S,,,,,,,,,
Silver azide,AgN$_{3}$,149.888,g/mol,250,$^{\circ}$C,,,,,
Quinuclidine,C$_{7}$H$_{13}$N,111.18,g/mol,157-160,$^{\circ}$C,,,149.5,$^{\circ}$C,
Tin(IV) sulfide,SnS$_{2}$,,,600,$^{\circ}$C,4.5,g/cm$^{3}$,,,Insoluble
Momordicin-28,C$_{31}$H$_{50}$O$_{3}$,,,121,$^{\circ}$C,,,,,
Propylhexedrine,C$_{10}$H$_{21}$N,,,,,,,,,
Femoxetine,C$_{20}$H$_{25}$NO$_{2}$,,,,,,,,,
Aluminium acetoacetate,,,,,,,,,,
Alphamethylthiofentanyl,C$_{21}$H$_{28}$N$_{2}$OS,,,,,,,,,
Kifunensine,C$_{8}$H$_{12}$N$_{2}$O$_{6}$,,,,,,,,,Soluble to 50
LY-156 735,,,,,,,,,,
Hydrastinine,C$_{11}$H$_{13}$NO$_{3}$,,,,,,,,,
Terizidone,C$_{14}$H$_{14}$N$_{4}$O$_{4}$,,,,,,,,,
Triphenylphosphine dichloride,C$_{18}$H$_{15}$Cl$_{2}$P,333.19,g/mol,176,$^{\circ}$C,,,,,
Dirhenium decacarbonyl,Re$_{2}$(CO)$_{10}$,652.52,g/mol,,,,,,,
Cloforex,C$_{13}$H$_{18}$ClNO$_{2}$,,,,,,,,,
Strontium fluoride,SrF$_{2}$,125.62,g/mol,1477,$^{\circ}$C,4.24,g/cm$^{3}$,2460,$^{\circ}$C,0.039
Lignoceric acid,C$_{24}$H$_{48}$O$_{2}$,368.63,g/mol,84.2,$^{\circ}$C,,,,,
Oxazolidinedione,C$_{3}$H$_{3}$NO$_{3}$,,,,,,,89-90,$^{\circ}$C,
Tetrasodium pyrophosphate,Na$_{4}$P$_{2}$O$_{7}$,,,988,$^{\circ}$C,2.534,g/cm$^{3}$,,,2.61
Crisnatol,C$_{23}$H$_{23}$NO$_{2}$,,,,,,,,,
Cobalt(II III) oxide,Co$_{3}$O$_{4}$,240.80,g/mol,895,$^{\circ}$C,6.11,g/cm$^{3}$,900,$^{\circ}$C,Insoluble
Demexiptiline,C$_{18}$H$_{18}$N$_{2}$O,,,,,,,,,
Succinylsulfathiazole,C$_{13}$H$_{13}$N$_{3}$O$_{5}$S$_{2}$,,,,,,,,,
Poriol,C$_{16}$H$_{14}$O$_{5}$,286.27,g/mol,,,,,,,
Morphine-N-oxide,C$_{17}$NH$_{19}$O$_{4}$,,,,,,,,,
Carbon tetraiodide,CI$_{4}$,,,,,,,,,
Endomorphin-2,C$_{32}$H$_{37}$N$_{5}$O$_{5}$,571.667,g/mol,,,,,,,
Methylcrotonyl-CoA,C$_{26}$H$_{42}$N$_{7}$O$_{17}$P$_{3}$S,849.636,g/mol,,,,,,,
DBNPA,C$_{3}$H$_{2}$Br$_{2}$N$_{2}$O,,,122,$^{\circ}$C,,,,,
Phenbenzamine,C$_{17}$H$_{22}$N$_{2}$,,,,,,,,,
Diethyltryptamine,C$_{14}$H$_{20}$N$_{2}$,,,169,$^{\circ}$C,,,,,
Potassium benzoate,C$_{7}$H$_{5}$KO$_{2}$,,,>300,$^{\circ}$C,1.5,g/cm$^{3}$,,,69.87
CCG-4986,C$_{13}$H$_{11}$ClN$_{2}$O$_{5}$S$_{2}$,,,,,,,,,
FCE 28260,,,,,,,,,,
Tritiated water,T$_{2}$Oor$^{3}$H$_{2}$O,,,4.49,$^{\circ}$C,,,,,
Alminoprofen,C$_{13}$H$_{17}$NO$_{2}$,,,,,,,,,
Rhamnetin,C$_{16}$H$_{12}$O$_{7}$,316.26,g/mol,,,,,,,
Nalfurafine,C$_{28}$H$_{32}$N$_{2}$O$_{5}$,,,,,,,,,
Chlorodiisopropylphosphine,C$_{6}$H$_{14}$ClP,,,,,,,,,
Arprinocid,C$_{12}$H$_{9}$ClFN$_{5}$,,,,,,,,,
Glycitein,C$_{16}$H$_{12}$O$_{5}$,284.26,g/mol,,,,,,,
Pentamine,C$_{13}$H$_{33}$N$_{3}$,,,,,,,,,
Asphodelin A,C$_{15}$H$_{10}$O$_{6}$,,,,,,,,,
Octanoyl-CoA,C$_{29}$H$_{50}$N$_{7}$O$_{17}$P$_{3}$S,893.732,g/mol,,,,,,,
Ibipinabant,C$_{24}$H$_{22}$Cl$_{2}$N$_{4}$O$_{2}$S,,,,,,,,,
Minaxolone,C$_{25}$H$_{43}$NO$_{3}$,,,,,,,,,
Pivhydrazine,C$_{12}$H$_{18}$N$_{2}$O,,,,,,,,,
Nimustine,C$_{9}$H$_{13}$ClN$_{6}$O$_{2}$,,,,,,,,,
Brookhart's acid,C$_{40}$H$_{33}$BF$_{24}$O$_{2}$,,,,,,,,,
Hasubanonine,C$_{21}$H$_{27}$NO$_{5}$,373.19,g/mol,,,,,,,
Fensulfothion,C$_{11}$H$_{17}$O$_{4}$PS$_{2}$,,,,,,,,,0.2% (25$^{\circ}$C)
Canthaxanthin,C$_{40}$H$_{52}$O$_{2}$,564.82,g/mol,211-212,$^{\circ}$C,,,,,
Ruthenium(III) acetylacetonate,(C$_{5}$H$_{7}$O$_{2}$)$_{3}$Ru,398.39,g/mol,260,$^{\circ}$C,,,,,insoluble in water
Cyclononane,C$_{9}$H$_{18}$,,,,,,,,,
Tetraazidomethane,CN$_{12}$,180.09,g/mol,,,,,,,
Macrocin,C$_{45}$H$_{75}$NO$_{17}$,902.07,g/mol,,,,,,,
Conduritol,C$_{6}$H$_{10}$O$_{4}$,,,,,,,,,
Tin selenide,SnSe,197.67,g/mol,861,$^{\circ}$C,6.179,g/cm$^{3}$,,,insoluble
Lodoxamide,C$_{11}$H$_{6}$ClN$_{3}$O$_{6}$,,,,,,,,,
CGS-20625,C$_{18}$H$_{19}$N$_{3}$O$_{2}$,,,,,,,,,
Sodium perborate,NaBO$_{3}$.NH$_{2}$O,99.815,g/mol,63,$^{\circ}$C,,,130-150,$^{\circ}$C,2.15
Carbocisteine,C$_{5}$H$_{9}$NO$_{4}$S,,,204-207,$^{\circ}$C,,,,,
Acebutolol,C$_{18}$H$_{28}$N$_{2}$O$_{4}$,,,,,,,,,
DDAIP,C$_{17}$H$_{36}$ClNO$_{2}$,,,,,,,,,
Morpholine,C$_{4}$H$_{9}$NO,,,-5,$^{\circ}$C,1.007,g/cm$^{3}$,129,$^{\circ}$C,miscible
Oxabolone cipionate,,,,,,,,,,
Captodiame,C$_{21}$H$_{29}$NS$_{2}$,,,,,,,,,
Cerivastatin,C$_{26}$H$_{34}$FNO$_{5}$,,,,,,,,,
Phentermine,C$_{10}$H$_{15}$N,,,,,,,,,
Octanal,C$_{8}$H$_{16}$O,,,12-15,$^{\circ}$C,0.821,g/cm$^{3}$,171,$^{\circ}$C,Slightly soluble
Dienedione,C$_{18}$H$_{22}$O$_{2}$,,,,,,,,,
Allobarbital,C$_{10}$H$_{12}$N$_{2}$O$_{3}$,,,,,,,,,
Benzyltrimethylammonium hydroxide,C$_{10}$H$_{17}$NO,,,,,,,,,Miscible in water
PIM-35,C$_{10}$H$_{12}$N$_{2}$O,,,,,,,,,
Lysidine (nucleoside),C$_{15}$H$_{25}$N$_{5}$O$_{6}$,371.39,g/mol,,,,,,,
Dipicolinic acid,C$_{7}$H$_{5}$NO$_{4}$,,,248,$^{\circ}$C,,,,,
Ethyl iodoacetate,C$_{4}$H$_{7}$IO$_{2}$,,,,,,,179-180,$^{\circ}$C,
Benzyl mercaptan,C$_{7}$H$_{8}$S,124.20,g/mol,-30,$^{\circ}$C,,,195,$^{\circ}$C,low
Medronic acid,CH$_{6}$O$_{6}$P$_{2}$,,,199-200,$^{\circ}$C,,,,,
Quinacridone,C$_{20}$H$_{12}$N$_{2}$O$_{2}$,,,,,1.47,g/cm$^{3}$,,,Insoluble
Rolicyclidine,C$_{16}$H$_{23}$N,,,,,,,,,
Atacicept,C$_{8}$H$_{12}$ClN$_{5}$,,,,,,,,,
Tebufenpyrad,C$_{18}$H$_{24}$ClN$_{3}$O,,,64-66,$^{\circ}$C,,,,,2.61
Impentamine,C$_{8}$H$_{15}$N$_{3}$,,,,,,,,,
Teneligliptin,C$_{22}$H$_{30}$N$_{6}$OS,,,,,,,,,
Cytidine diphosphate,C$_{9}$H$_{15}$N$_{3}$O$_{11}$P$_{2}$,,,,,,,,,
Fenfluramine,C$_{12}$H$_{16}$F$_{3}$N,,,,,,,,,
Suproclone,C$_{22}$H$_{22}$ClN$_{5}$O$_{4}$S$_{2}$,,,,,,,,,
Rimazolium,chemical_formulaC$_{13}$H$_{19}$N$_{2}$O$_{3}$; C$_{14}$H$_{22}$N$_{2}$O$_{7}$S(mesylate),,,165,$^{\circ}$C,,,,,
Rosoxacin,C$_{17}$H$_{14}$N$_{2}$O$_{3}$,,,290,$^{\circ}$C,,,,,
Chavicine,C$_{17}$H$_{19}$NO$_{3}$,285.338,g/mol,,,,,498.5,$^{\circ}$C,
Sitaxentan,C$_{18}$H$_{15}$ClN$_{2}$O$_{6}$S$_{2}$,,,,,,,,,
DHSA,C$_{19}$H$_{24}$O$_{4}$,,,,,,,,,
Pyronaridine,C$_{29}$H$_{32}$ClN$_{5}$O$_{2}$,,,,,,,,,
Nimodipine,C$_{21}$H$_{26}$N$_{2}$O$_{7}$,,,,,,,,,
Simmondsin,C$_{16}$H$_{25}$NO$_{9}$,,,,,,,,,
Perimycin,C$_{59}$H$_{88}$N$_{2}$O$_{17}$,1097.33,g/mol,,,,,,,
Kuwanon G,C$_{40}$H$_{36}$O$_{11}$,,,,,,,,,
Pipofezine,C$_{16}$H$_{19}$N$_{5}$O,,,,,,,,,
Halofantrine,C$_{26}$H$_{30}$Cl$_{2}$F$_{3}$NO,,,,,,,,,
Cetiedil,C$_{20}$H$_{31}$NO$_{2}$S,,,,,,,,,
Oxilorphan,C$_{20}$H$_{27}$NO$_{2}$,,,,,,,,,
Carbonyl fluoride,COF$_{2}$,,,-111.26,$^{\circ}$C,,,-84.57,$^{\circ}$C,reacts violently with water
Efalizumab,C$_{9}$H$_{13}$NO$_{2}$,,,66,$^{\circ}$C,,,,,
Cytochalasin B,C$_{29}$H$_{37}$NO$_{5}$,479.6,g/mol,,,,,,,
Doxanthrine,C$_{16}$H$_{15}$NO$_{3}$,,,,,,,,,
Fosmidomycin,C$_{4}$H$_{10}$NO$_{5}$P,,,,,,,,,
Sambubiose,C$_{11}$H$_{20}$O$_{10}$,,,,,,,,,
RH-34,C$_{18}$H$_{19}$N$_{3}$O$_{3}$,,,,,,,,,
Lumiflavin,C$_{13}$H$_{12}$N$_{4}$O$_{2}$,,,,,,,,,
Manganese(II) fluoride,MnF$_{2}$,92.934855,g/mol,856,$^{\circ}$C,3.98,g/cm$^{3}$,1820,$^{\circ}$C,
Epirubicin,C$_{27}$H$_{29}$NO,,,,,,,,,
Roxithromycin,C$_{41}$H$_{76}$N$_{2}$O$_{15}$,,,,,,,,,
Propranolol,C$_{16}$H$_{21}$NO$_{2}$,,,,,,,,,
Fluacizine,C$_{20}$H$_{21}$F$_{3}$N$_{2}$OS,,,,,,,,,
Prodilidine,C$_{15}$H$_{21}$NO$_{2}$,,,,,,,,,
Adenosine,C$_{10}$H$_{13}$N$_{5}$O$_{4}$,,,,,,,,,
Ethylisopropyltryptamine,C$_{15}$H$_{22}$N$_{2}$,,,71,$^{\circ}$C,,,,,
Malaoxon,C$_{10}$H$_{19}$O$_{7}$PS,,,,,,,,,
Lysergic acid,C$_{16}$H$_{16}$N$_{2}$O$_{2}$,,,238-240,$^{\circ}$C,,,,,
Thiobarbital,C$_{8}$H$_{12}$N$_{2}$O$_{2}$S,,,,,,,,,
Salicin,C$_{13}$H$_{18}$O$_{7}$,,,197-200,$^{\circ}$C,,,,,
Copper indium gallium selenide,CuIn$_{x}$Ga$_{(1-x)}$Se$_{2}$,,,1070-990,$^{\circ}$C,~5.7,g/cm$^{3}$,,,
Punicic acid,C$_{18}$H$_{30}$O$_{2}$,278.43,g/mol,44-45,$^{\circ}$C,,,,,
Nifurquinazol,C$_{16}$H$_{16}$N$_{4}$O$_{5}$,,,,,,,,,
Semiheavy water,H$^{2}$HO(AlSOHDO),,,3.81,$^{\circ}$C,,,101.42,$^{\circ}$C,Reacts
Broxaterol,C$_{9}$H$_{15}$BrO$_{2}$N$_{2}$,,,,,,,,,
Alpha-Eleostearic acid,C$_{18}$H$_{30}$O$_{2}$,278.43,g/mol,48,$^{\circ}$C,,,,,
N-Bromosuccinimide,C$_{4}$H$_{4}$BrNO$_{2}$,,,175,$^{\circ}$C,2.098,g/cm$^{3}$,339,$^{\circ}$C,14.7
Thiamylal,C$_{12}$H$_{18}$N$_{2}$O$_{2}$S,,,,,,,,,
Tilomisole,C$_{17}$H$_{11}$ClN$_{2}$O$_{2}$S,,,,,,,,,
Cloroqualone,C$_{16}$H$_{12}$Cl$_{2}$N$_{2}$O,,,,,,,,,
Methyl red,C$_{15}$H$_{15}$N$_{3}$O$_{2}$,,,179-182,$^{\circ}$C,0.791,g/cm$^{3}$,,,
Gingerol,C$_{17}$H$_{26}$O$_{4}$,294.38,g/mol,30-32,$^{\circ}$C,,,,,
Isopregnanolone,C$_{21}$H$_{34}$O$_{2}$,,,,,,,,,
Glatiramer acetate,,,,,,,,,,
Phthalimidopropiophenone,C$_{17}$H$_{13}$NO$_{3}$,,,87-88,$^{\circ}$C,1.304,g/cm$^{3}$,447.2,$^{\circ}$C,
Pimecrolimus,C$_{43}$H$_{68}$ClNO,,,,,,,,,
Thiete,C$_{3}$H$_{4}$S,,,,,,,,,
Methyl carbamate,C$_{2}$H$_{5}$NO$_{2}$,75,g/mol,52,$^{\circ}$C,,,177,$^{\circ}$C,good
Setmelanotide,C$_{49}$H$_{68}$N$_{18}$O$_{9}$S$_{2}$,,,,,,,,,
Yttrium borides,YB$_{6}$,,,2300,$^{\circ}$C,3.67,g/cm$^{3}$,,,Insoluble
Benzoctamine,C$_{18}$H$_{19}$N,,,,,,,,,
Tiamulin,C$_{28}$H$_{47}$NO$_{4}$S,,,,,,,,,
Cobalt(II) bromide,"CoBr$_{2}$,CoBr$_{2}$.6H$_{2}$O,CoBr$_{2}$.2H$_{2}$O",218.7412,g/mol,678,$^{\circ}$C,4.909,g/cm$^{3}$,,,anhydrous:   66.7
Unoprostone,C$_{22}$H$_{38}$O$_{5}$,,,,,,,,,
Pitrazepin,C$_{19}$H$_{19}$N$_{5}$,,,,,,,,,
Decane,C$_{10}$H$_{22}$,,,,,,,,,
Benzo(e)pyrene,C$_{20}$H$_{12}$,,,,,1.286,g/cm$^{3}$,,,
Propagermanium,C$_{6}$H$_{10}$O$_{7}$Ge$_{2}$,339.4222,g/mol,,,,,,,
Sodium tert-butoxide,C$_{4}$H$_{9}$NaO,96.10,g/mol,,,,,,,
Ethyl phenyl ether,C$_{8}$H$_{10}$O,,,-30,$^{\circ}$C,,,169-170,$^{\circ}$C,0.57
Disulfiram,C$_{10}$H$_{20}$N$_{2}$S$_{4}$,,,,,,,,,
Carbubarb,C$_{11}$H$_{17}$N$_{3}$O$_{5}$,,,,,,,,,
Copper(I) chloride,CuCl,98.999,g/mol,426,$^{\circ}$C,4.145,g/cm$^{3}$,1490,$^{\circ}$C,0.0062
Enadoline,C$_{24}$H$_{32}$N$_{2}$O$_{3}$,,,,,,,,,