Property Melting Point,Property Density,Property Boiling Point,Property Solubility,Property Molar Mass,Name,formula
,,,,352.465,Thromboxane A2,C$_{20}$H$_{32}$O$_{5}$
,,,,,Etonitazene,C$_{22}$H$_{28}$N$_{4}$O$_{3}$
,,,,374.82,Chlorophacinone,C$_{23}$H$_{15}$ClO$_{3}$
,,,,,Glutethimide,C$_{13}$H$_{15}$NO$_{2}$
,,,,,Fazadinium bromide,
681,3.123,1330,128,166.0028,Potassium iodide,KI
,,,,,Nitroxyl,HNO
255,2.341,,soluble,230.5,Cadmium acetate,Cd(CH$_{3}$COO)$_{2}$(anhydrous)
229-234,,,,,Baccatin III,C$_{31}$H$_{38}$O$_{11}$
,,,,,AM-4030,C$_{27}$H$_{42}$O$_{4}$
,7.44,,34.3,221.39,Thallium(I) hydroxide,TlOH
,,,,,Pentamidine,C$_{19}$H$_{24}$N$_{4}$O$_{2}$
,,,,,Ebalzotan,C$_{19}$H$_{30}$N$_{2}$O$_{2}$
,,,,422.44,Blasticidin S,C$_{17}$H$_{26}$N$_{8}$O$_{5}$
,,,,,Trimetrexate,C$_{19}$H$_{23}$N$_{5}$O$_{3}$
41,,284,,144.21,Cyclohexanedimethanol,C$_{8}$H$_{16}$O$_{2}$
,,,,149.885,Silver cyanate,AgOCN
-13,,230-260,,,Delta-Valerolactone,C$_{5}$H$_{8}$O$_{2}$
,,,,,Lofexidine,C$_{11}$H$_{12}$Cl$_{2}$N$_{2}$O
,,,,449.62,Glycochenodeoxycholic acid,C$_{26}$H$_{43}$NO$_{5}$
,,,,446.49,Flavaspidic acid BB,C$_{24}$H$_{30}$O$_{8}$
,,,,,Zipeprol,C$_{23}$H$_{32}$N$_{2}$O$_{3}$
-25,,103-104,10,438.06,Perfluorooctane,C$_{8}$F$_{18}$
,,,,297.354,Diphthamide,C$_{13}$H$_{23}$N$_{5}$O$_{3}$
,,,,594.52,Saponarin,C$_{27}$H$_{30}$O$_{15}$
,,,,,Chlorpropamide,C$_{10}$H$_{13}$ClN$_{2}$O$_{3}$S
,7.52,,Insoluble,303.09,Lead titanate,PbTiO$_{3}$
,,,,,Dichlorophen,C$_{13}$H$_{10}$Cl$_{2}$O$_{2}$
1000,3.25,,insoluble,165.901,Aluminium arsenate,AlAsO$_{4}$
,,,,588.69,Phycocyanobilin,C$_{33}$H$_{40}$N$_{4}$O$_{6}$
,,,,,TROX-1,C$_{22}$H$_{16}$ClFN$_{6}$O
,,,,,Mequitazine,C$_{20}$H$_{22}$N$_{2}$S
,,,,562.7,Ecamsule,C$_{28}$H$_{34}$O$_{8}$S$_{2}$
132-135,,,,,BDTH2,C$_{12}$H$_{16}$N$_{2}$O$_{2}$S$_{2}$
13.8,1.623,126,,196.04,Tetranitromethane,CN$_{4}$O$_{8}$
965,4.72,,0.975,134.81,Iron(II) selenide,FeSe
,,,insoluble,,Barium ferrate,BaFeO$_{4}$
,,,,,Methylprednisolone,C$_{22}$H$_{30}$O$_{5}$
,,,,,Quinapril,C$_{25}$H$_{30}$N$_{2}$O$_{5}$
66,3.44,215.6,,190.952,Molybdenum(V) fluoride,MoF$_{5}$
776,4.1,1500,soluble in water,273.62,Erbium(III) chloride,ErCl$_{3}$(anhydrous)
,,,,,Eptifibatide,C$_{35}$H$_{49}$N$_{11}$O$_{9}$S$_{2}$
,,,,256.38,Bakuchiol,C$_{18}$H$_{24}$O
,,,,,Folinic acid,
,,261,,74.085,Pimagedine,CH$_{6}$N$_{4}$
-49,,-2.2,0.7,,Hydrogen telluride,H$_{2}$Te
288,,,12.51,,Sulfanilic acid,C$_{6}$H$_{7}$NO$_{3}$S
,,,,612.58,Neohesperidin dihydrochalcone,C$_{28}$H$_{36}$O$_{15}$
,,,,,VUAA1,C$_{19}$H$_{21}$N$_{5}$OS
69.2,1.04,255,4.45,,Biphenyl,C$_{12}$H$_{10}$
,,,,,CP 55 940,
,,,,,Clobazam,C$_{16}$H$_{13}$ClN$_{2}$O$_{2}$
,,,,,Potassium osmate,H$_{4}$K$_{2}$O$_{6}$Os
,,,,306.443,Butacaine,C$_{18}$H$_{30}$N$_{2}$O$_{2}$
,,,,139.24,Azaspirodecane,C$_{9}$H$_{17}$N
285,,,,,Crocetin,C$_{20}$H$_{24}$O$_{4}$
,9.4,,,436.145,Tantalum telluride,TaTe$_{2}$
,,,,,Epoxomicin,C$_{28}$H$_{50}$N$_{4}$O$_{7}$
,,,,,JWH-200,C$_{25}$H$_{24}$N$_{2}$O$_{2}$
,,,,330.59,Cholane,C$_{24}$H$_{42}$
,,,,,Ergoline,C$_{14}$H$_{16}$N$_{2}$
,,,,,Fenadiazole,C$_{8}$H$_{6}$N$_{2}$O$_{2}$
,,,,,Omecamtiv mecarbil,
,,,,,Umbellic acid,C$_{9}$H$_{8}$O$_{4}$
201-203,,,,325.36,Bulbocapnine,C$_{19}$H$_{19}$NO$_{4}$
,,,,38.94,Lithium superoxide,LiO$_{2}$
,,,,,Hetacillin,C$_{19}$H$_{23}$N$_{3}$O$_{4}$S
,,,,70.0335,Pentazenium,N$^{+}_{5}$
,,,,,Dihydrexidine,C$_{17}$H$_{17}$NO$_{2}$
,,,,,Xylopropamine,C$_{11}$H$_{17}$N
,,,,269.4,Fluoromethane,C$_{14}$H$_{23}$NO$_{2}$S
,,,120,,Tert-Amyl alcohol,C$_{5}$H$_{12}$O
,4.44,,0.0396,154.61,Nickel(II) titanate,NiTiO$_{3}$
,,,,,Rosavin,C$_{20}$H$_{28}$O$_{10}$
,,,,,Milataxel,C$_{44}$H$_{55}$NO$_{16}$
-109,,31.5,Insoluble,151.328,Digermane,Ge$_{2}$H$_{6}$
,,68,,,Danishefsky's diene,C$_{8}$H$_{16}$O$_{2}$Si
,,,,,JM-1232,C$_{24}$H$_{27}$N$_{3}$O$_{2}$
,,,,,Kanamycin,C$_{18}$H$_{36}$N$_{4}$O
,,,,898.77,Prodelphinidin C2,C$_{45}$H$_{38}$O$_{20}$
,,,,,Methanolamine,CH$_{5}$NO
,,,,,BW373U86,C$_{27}$H$_{37}$N$_{3}$O$_{2}$
,,,,,Estropipate,C$_{22}$H$_{32}$N$_{2}$O$_{5}$S
,,,,,Parecoxib,C$_{19}$H$_{18}$N$_{2}$O$_{4}$S
,,,0.03% (22.7$^{\circ}$C),,Disulfoton,C$_{8}$H$_{19}$O$_{2}$PS$_{3}$
107,,,Soluble,,Fluoroacetamide,C$_{2}$H$_{4}$FNO
48.3,1.667,100,70.1,158.11,Sodium thiosulfate,Na$_{2}$S$_{2}$O$_{3}$
279-283,1.54,430,slightly to sparingly soluble,,Alizarin,C$_{14}$H$_{8}$O$_{4}$
,,,,,Clemizole,C$_{19}$H$_{20}$ClN$_{3}$
180-181,1.348,,2,353.17,Tris(acetylacetonato)iron(III),Fe(C$_{5}$H$_{7}$O$_{2}$)$_{3}$
259-262,,,,,Acedoben,C$_{9}$H$_{9}$NO$_{3}$
243-247,,,Insoluble,,Pulvinone,C$_{17}$H$_{12}$O$_{3}$
,,,,,Doxacurium chloride,
,,,,,Oseltamivir,C$_{16}$H$_{28}$N$_{2}$PO$_{8}$
,,,,,Centalun,C$_{11}$H$_{12}$O$_{2}$
,,,,,Desomorphine,C$_{17}$H$_{21}$NO$_{2}$
,,,,,Iprazochrome,C$_{12}$H$_{16}$N$_{4}$O$_{3}$
165,1.08,,,,Sulfanilamide,C$_{6}$H$_{8}$N$_{2}$O$_{2}$S
,,,,,Blonanserin,C$_{23}$H$_{30}$FN$_{3}$
,,,,,Sodium phenylbutyrate,
,,,,255.25,Nicotinamide riboside,C$_{11}$H$_{15}$N$_{2}$O$^{+}_{5}$
,1.064,58,with hydration,,Succinaldehyde,C$_{4}$H$_{6}$O$_{2}$
,,,,,Tris(dimethylamino)gallium dimer,C$_{12}$H$_{36}$Ga$_{2}$N$_{6}$
,,,,,Valganciclovir,C$_{14}$H$_{22}$N$_{6}$O$_{5}$
,,,,,Losigamone,C$_{12}$H$_{11}$ClO$_{4}$
235,,,reacts,240.232,Barium hypochlorite,Ba(ClO)$_{2}$
845,2.635,1676,0.27,25.939(2),Lithium fluoride,LiF
,,,,,Glycerol 3-phosphate,C$_{3}$H$_{9}$O$_{6}$P
,,,,,Indobufen,C$_{18}$H$_{17}$NO$_{3}$
,,,,,Pyrabactin,C$_{16}$H$_{13}$BrN$_{2}$O$_{2}$S
,,77.1,,,Ethynol,C$_{2}$H$_{2}$O
,,,Soluble to 25,,H-89,C$_{20}$H$_{20}$BrN$_{3}$O$_{2}$S
,,,,174.262,Butyrylcholine,C$_{9}$H$_{20}$NO$^{+}_{2}$
-24,1.015,233-234,,117.15,Benzyl cyanide,C$_{8}$H$_{7}$N
,,,,,LAE-32,C$_{18}$H$_{21}$N$_{3}$O
102,,,organic solvents,252.83,Silver hexafluorophosphate,AgPF$_{6}$
,,250,,145.243,Heptaminol,C$_{8}$H$_{19}$NO
217,1.286,,,,Benzo(k)fluoranthene,C$_{20}$H$_{12}$
,,,,,Voglibose,C$_{10}$H$_{21}$NO$_{7}$
-86,1.14,23.5,Dissolves,43.03,Isocyanic acid,HNCO
120,,,,492.38,Carminic acid,C$_{22}$H$_{20}$O$_{13}$
,,,,,Cefapirin,C$_{17}$H$_{17}$N$_{3}$O$_{6}$S$_{2}$
,,,,,Amonafide,C$_{16}$H$_{17}$N$_{3}$O$_{3}$
,,,,881.635,Glutaryl-CoA,C$_{26}$H$_{42}$N$_{7}$O$_{19}$P$_{3}$S
188,,,,,Piperidylthiambutene,C$_{17}$H$_{21}$NS$_{2}$
,,,,,Ipronidazole,C$_{7}$H$_{11}$N$_{3}$O$_{2}$
59,,,,,Tryptophol,C$_{10}$H$_{11}$NO
180,2.115,,18.2,252.07,Ammonium dichromate,(NH$_{4}$)$_{2}$Cr$_{2}$O$_{7}$
,,,,,Miltefosine,C$_{21}$H$_{46}$NO$_{4}$P
440.02,1.914986,537,281,85.10379,Potassium nitrite,KNO$_{2}$
,,,,,Propyliodone,C$_{10}$H$_{11}$I$_{2}$NO$_{3}$
,,,,489.6,Isomigrastatin,C$_{27}$H$_{39}$NO$_{7}$
,,,,,BOH (drug),
28,,,,,Lactic acid O-carboxyanhydride,C$_{4}$H$_{4}$O$_{4}$
,,,,,Elinogrel,C$_{20}$H$_{15}$ClFN$_{5}$O$_{5}$S$_{2}$
-51,,222,insoluble,,Dichlorophenylphosphine,C$_{6}$H$_{5}$Cl$_{2}$P
1470,4.39,,insoluble,108.167,Chromium(II) silicide,CrSi$_{2}$
,,,10,,L-Photo-Leucine,C$_{5}$H$_{9}$N$_{3}$O$_{2}$
,,,,,Bucolome,C$_{14}$H$_{22}$N$_{2}$O$_{3}$
,,,,,Endralazine,C$_{14}$H$_{15}$N$_{5}$O
,,,,,Hydroxybupropion,C$_{13}$H$_{18}$ClNO$_{2}$
,,,,,Phenylpropylaminopentane,C$_{14}$H$_{23}$N
280,,,,,Acid red 88,C$_{20}$H$_{13}$N$_{2}$NaO$_{4}$S
,,,,229.25,TES (buffer),C$_{6}$H$_{15}$NO$_{6}$S
498,,900,55.7,223.37,Copper(II) bromide,CuBr$_{2}$
,,,,,SCH-48461,C$_{26}$H$_{27}$NO$_{3}$
176,,,,174.2,Adipic acid dihydrazide,C$_{6}$H$_{14}$N$_{4}$O$_{2}$
,,,,,Carteolol,C$_{16}$H$_{24}$N$_{2}$O$_{3}$
,,,,177.29,Sulforaphane,C$_{6}$H$_{11}$NOS$_{2}$
,,,,,Ryodipine,C$_{18}$H$_{19}$F$_{2}$NO$_{5}$
-123.37,,20.2,soluble,,Acetaldehyde,C$_{2}$H$_{4}$O
273,,,Soluble,,Chrysolaminarin,variable
116-117,,295,1.992,166.223,Fluorene,C$_{13}$H$_{10}$
,,,145,,Chlorfenvinphos,C$_{12}$H$_{14}$Cl$_{3}$O$_{4}$P
190,,,,,Aconitic acid,C$_{6}$H$_{6}$O$_{6}$
,,,,,Temocillin,C$_{16}$H$_{18}$N$_{2}$O$_{7}$S$_{2}$
17,0.96,232,Reacts to form TiO$_{2}$,284.215,Titanium isopropoxide,C$_{12}$H$_{28}$O$_{4}$Ti
,,,,,ADDA (amino acid),C$_{20}$H$_{29}$NO$_{3}$
,,,,,Norvaline,C$_{5}$H$_{11}$NO$_{2}$
,,,,,Buserelin,C$_{62}$H$_{90}$N$_{16}$O$_{15}$
,,,,1131.14,Amurensin E,C$_{70}$H$_{50}$O$_{15}$
,,,,,Pheneridine,C$_{22}$H$_{27}$NO$_{2}$
,,,,,Belotecan,C$_{25}$H$_{27}$N$_{3}$O$_{4}$
,,,,223.15,Copper(I) sulfate,Cu$_{2}$SO$_{4}$
,,,,,Eslicarbazepine acetate,
,,,,,Satavaptan,C$_{33}$H$_{45}$N$_{3}$O$_{8}$S
,,,,,Thallium hydride,TlH$_{3}$
,,,,218.252,N-Acetylserotonin,C$_{12}$H$_{14}$N$_{2}$O$_{2}$
,,,,234.28,Metisazone,C$_{10}$H$_{10}$N$_{4}$OS
,,,,,Nifuratel,C$_{10}$H$_{11}$N$_{3}$O$_{5}$S
,,,,,Azacyclonol,C$_{18}$H$_{21}$NO
,,,,,Sulcotidil,C$_{20}$H$_{35}$NOS
13-14,,,reacts,,Benzenesulfonyl chloride,C$_{6}$H$_{5}$ClO$_{2}$S
,,,,577.93,Bromethalin,C$_{14}$H$_{7}$Br$_{3}$F$_{3}$N$_{3}$O$_{4}$
160,,,,,Hygromycin B,
131,1.8,160,very soluble,114.125,Ammonium sulfamate,H$_{6}$N$_{2}$O$_{3}$S
,,,,616.61,Diptoindonesin A,C$_{34}$H$_{32}$O$_{11}$
,,,,,Aminolevulinic acid,
,,,,,Ferric subsulfate solution,
,,,,,Brophebarbital,C$_{12}$H$_{11}$BrN$_{2}$O$_{3}$
-64,,61,,,Deuterated chloroform,CDCl$_{3}$
,,,,,Vinflunine,C$_{45}$H$_{54}$F$_{2}$N$_{4}$O$_{8}$
,,,,157.236,Amthamine,C$_{6}$H$_{11}$N$_{3}$S
,,,,,Bacillosamine,C$_{6}$H$_{14}$N$_{2}$O$_{3}$
,,,,,Fenoterol,C$_{17}$H$_{21}$NO$_{4}$
,,,,,Rubitecan,C$_{20}$H$_{15}$N$_{3}$O$_{6}$
,,,,391.35,Ambutonium bromide,C$_{20}$H$_{27}$BrN$_{2}$O
,,,,560.64,Geldanamycin,C$_{29}$H$_{40}$N$_{2}$O$_{9}$
,,,,630.97,Antirrhinin,"C$_{27}$H$_{31}$O$_{15}^{+}$,Cl$^{-}$"
,,,,386.42,Eusiderin,C$_{22}$H$_{26}$O$_{6}$
187,,,,,Tetrasulfur tetranitride,N$_{4}$S$_{4}$
,,,,,Lestaurtinib,C$_{26}$H$_{21}$N$_{3}$O$_{4}$
,,,,,Iproniazid,C$_{9}$H$_{13}$N$_{3}$O
,,,,,Denopamine,C$_{18}$H$_{23}$NO$_{4}$
,,,,,Ketorolac,C$_{15}$H$_{13}$NO$_{3}$
,,0-6,low,52.07456,Vinylacetylene,C$_{4}$H$_{4}$
,,,,,Pegaptanib,chemical_formulaC$_{294}$H$_{342}$F$_{13}$N$_{107}$Na$_{28}$O$_{188}$P$_{28}$[C$_{2}$H$_{4}$O]$_{2n}$(n$\in$900)
,,,,410.41658,Tephrosin,C$_{23}$H$_{22}$O$_{7}$
318,2.13,1388,<<139,,Sodium hydroxide,NaOH
,,,,,Oxybutynin,C$_{22}$H$_{31}$NO$_{3}$
,,,,,Sigmodal,C$_{12}$H$_{17}$BrN$_{2}$O$_{3}$
287,1.735,307,139,81.072,Sodium thiocyanate,NaSCN
220,,,Will react to decompose and release HCl (g),363.471,Rhenium pentachloride,ReCl$_{5}$
,,,,1871.27,Sanguiin H-6,C$_{82}$H$_{54}$O$_{52}$
,,,,,Idoxifene,C$_{28}$H$_{30}$INO
,,,,,Thorium(IV) orthosilicate,O$_{4}$SiTh
-16.3,,85-85.5,soluble,,Chloroacetaldehyde,C$_{2}$H$_{3}$ClO
-117,,53,,,Trisilane,H$_{8}$Si$_{3}$
,,,trace,127.11,Ammeline,C$_{3}$H$_{5}$N$_{5}$O
,,,,,Adhyperforin,C$_{36}$H$_{54}$O$_{4}$
,,,,,Tiagabine,C$_{20}$H$_{25}$NO$_{2}$S$_{2}$
,,,,,Dimemebfe,C$_{13}$H$_{17}$NO$_{2}$
,,,,,Salvinorin B ethoxymethyl ether,
107.5-109,,,,,Carbyl sulfate,C$_{2}$H$_{4}$O$_{6}$S$_{2}$
,,,,,Enrofloxacin,C$_{19}$H$_{22}$FN$_{3}$O$_{3}$
460,2.805,657,reacts violently,77.98,Sodium peroxide,Na$_{2}$O$_{2}$
173-174,,,,,Isocodeine,C$_{18}$H$_{21}$NO$_{3}$
265,,231,,115.13,Allylglycine,C$_{5}$H$_{9}$NO$_{2}$
,,,,,Melperone,C$_{16}$H$_{22}$FNO
,,,,,Droxidopa,C$_{9}$H$_{11}$NO$_{5}$
-112,,52,Reacts with water,78.49,Acetyl chloride,CH$_{3}$COCl
44.5,1.31,,,141.1,Methamidophos,C$_{2}$H$_{8}$NO$_{2}$PS
,,,,,Fenbutrazate,C$_{23}$H$_{29}$NO$_{3}$
-44,1.72,147,insoluble,,Perchloromethyl mercaptan,CSCl$_{4}$
,,,,,ICI-190 622,
,,,,,Tirofiban,C$_{22}$H$_{36}$N$_{2}$O$_{5}$S
,,,,,La$\beta$lol,C$_{19}$H$_{24}$N$_{2}$O$_{3}$
,,,,360.31,Irigenin,C$_{18}$H$_{16}$O$_{8}$
,,,,298.24,Irilone,C$_{16}$H$_{10}$O$_{6}$
,,,,,Flufenamic acid,
1900,,,insoluble,187.444,Gallium(III) oxide,Ga$_{2}$O$_{3}$
,,,,,Lithium iron phosphate,FeLiO$_{4}$P
,,320,Reacts,,Chlorodiphenylphosphine,C$_{12}$H$_{10}$ClP
-3.9,,300,,,VX (nerve agent),C$_{11}$H$_{26}$NO$_{2}$PS
-95,,111,0.52,,Toluene,C$_{7}$H$_{8}$
,,,,,Crotylbarbital,C$_{10}$H$_{14}$N$_{2}$O$_{3}$
,0.9346,224,Insoluble,,Pulegone,C$_{10}$H$_{16}$O
,,,,276.24,Ammiol,C$_{14}$H$_{12}$O$_{6}$
,,,,,Pamabrom,chemical_formula8-Bromotheophylline:C$_{7}$H$_{7}$BrN$_{4}$O$_{2}$; 2-Amino-2-methyl-1-propanol:C$_{4}$H$_{11}$NO
37,1.536,100,high,178.95,Manganese(II) nitrate,Mn(NO$_{3}$)$_{2}$
2270,4.36,,,202.193,Barium boride,BaB$_{6}$
4,,86,,,Triisobutylaluminium,C$_{12}$H$_{27}$Al
77,,,,,Cetylpyridinium chloride,C$_{21}$H$_{38}$NCl
,2.6,,slightly soluble in water,452.26,Potassium cobaltinitrite,K$_{3}$[Co(NO$_{2}$)$_{6}$](anhydrous)
,,,,,Elotuzumab,C$_{6476}$H$_{9982}$N$_{1714}$O$_{2016}$S$_{42}$
,,,,,Itopride,C$_{20}$H$_{26}$N$_{2}$O$_{4}$
,,,,164.16,Fuculose,C$_{6}$H$_{12}$O$_{5}$
,,,,,Tylosin,C$_{46}$H$_{77}$NO$_{17}$
,,,,,Dihydrolipoic acid,C$_{8}$H$_{16}$O$_{2}$S$_{2}$
,,,,,Isopentenyl pyrophosphate,C$_{5}$H$_{12}$O$_{7}$P$_{2}$
,,,,,Bisacodyl,C$_{22}$H$_{19}$NO$_{4}$
,,,,,CP-39 332,
,,,,,Methiopropamine,C$_{8}$H$_{13}$NS
,,,,,Hydrocortamate,C$_{27}$H$_{41}$NO$_{6}$
sublimes at 150,,,reacts,29.99,Aluminium hydride,AlH$_{3}$
208-212,,,,,Trimethylsulfoxonium iodide,C$_{3}$H$_{9}$OSI
,,,,,Anoxomer,variable
,,,,,Aurotioprol,C$_{3}$H$_{6}$AuNaO$_{4}$S$_{2}$
35,,,,,Julolidine,C$_{12}$H$_{15}$N
112-115,,,,347.66,Hexachlorophosphazene,N$_{3}$Cl$_{6}$P$_{3}$
,,,,,Reboxetine,C$_{19}$H$_{23}$NO$_{3}$
14,,141,Miscible,,Acrylic acid,C$_{3}$H$_{4}$O$_{2}$
,,,Slightly soluble,910.78,Carthamin,C$_{43}$H$_{42}$O$_{22}$
,,,,230.19,Dicalcium citrate,C$_{6}$H$_{6}$CaO$_{7}$
,,631.225,,505.01116,Y-320,C$_{27}$H$_{29}$ClN$_{6}$O$_{2}$
,,,,169.18,Oxidopamine,C$_{8}$H$_{11}$NO$_{3}$
,,,,,Anacetrapib,C$_{30}$H$_{25}$F$_{10}$NO$_{3}$
,,,,,AGN-2979,C$_{19}$H$_{28}$N$_{2}$O$_{3}$
,,,,,Deoxyuridine monophosphate,C$_{9}$H$_{13}$N$_{2}$O$_{8}$P
,,,Reacts,,Dimethylmagnesium,C$_{2}$H$_{6}$Mg
,,,,,Practolol,C$_{14}$H$_{22}$N$_{2}$O$_{3}$
,,,,,GR-113808,C$_{19}$H$_{27}$N$_{3}$O$_{4}$S
-3.4,0.929,205.8,1.082,,Hexanoic acid,C$_{6}$H$_{12}$O$_{2}$
,,150-152,,272.47,Cembrene A,C$_{20}$H$_{32}$
,,,,,Ganirelix,C$_{80}$H$_{113}$ClN$_{18}$O$_{13}$
,,,,,BD-1047,C$_{13}$H$_{20}$Cl$_{2}$N$_{2}$
,,,,574.66,Herbimycin,C$_{30}$H$_{42}$N$_{2}$O$_{9}$
,,,,,Nebivolol,C$_{22}$H$_{25}$F$_{2}$NO$_{4}$
,,,,,Ketamine,C$_{13}$H$_{16}$ClNO
30,0.832,,0.0015,,Myristyl aldehyde,C$_{14}$H$_{28}$O
,,142,,,Triethyl orthoacetate,C$_{8}$H$_{18}$O$_{3}$
,,,,580.801,Protoporphyrinogen IX,C$_{34}$H$_{52}$N$_{4}$O$_{4}$
,,,,,Binospirone,C$_{20}$H$_{26}$N$_{2}$O$_{4}$
,,,,397.46,Sinigrin,C$_{10}$H$_{16}$KNO$_{9}$S$_{2}$
113,,,,,Parthenolide,C$_{15}$H$_{20}$O$_{3}$
,,,,,Cetuximab,C$_{6484}$H$_{10042}$N$_{1732}$O$_{2023}$S$_{36}$
,,123,0.245,315.16,Dichlofenthion,C$_{10}$H$_{13}$Cl$_{2}$O$_{3}$PS
,,,,,Tromantadine,C$_{16}$H$_{28}$N$_{2}$O$_{2}$
,,,,217.264,Methylenedioxypropargylamphetamine,C$_{13}$H$_{15}$NO$_{2}$
,,,,,Asperlicin,C$_{31}$H$_{29}$N$_{5}$O$_{4}$
,,,,,Talsupram,C$_{20}$H$_{25}$NS
246.3,,354.69,,,Carbazole,C$_{12}$H$_{9}$N
-100.6,,-78.2,0.00%,,Hexafluoroethane,C$_{2}$F$_{6}$
,,,,,Petunidin-3-O-glucoside,C$_{22}$H$_{23}$O$^{+}_{12}$
,,,,,Lapaquistat,C$_{31}$H$_{39}$ClN$_{2}$O$_{8}$
,,,,448.37,Maritimein,C$_{21}$H$_{20}$O$_{11}$
,,,,188.38,Lenthionine,C$_{2}$H$_{4}$S$_{5}$
842,4.236,,"soluble, exothermal blue solution",291.71,Chromium(II) bromide,CrBr$_{2}$
,,,,,Octahydroxyanthraquinone,C$_{14}$H$_{8}$O$_{12}$
,,,,292.29,Karanjin,C$_{18}$H$_{12}$O$_{4}$
,,,,276.28,Dihydromethysticin,C$_{15}$H$_{16}$O$_{5}$
<25,,,,,Padimate A,C$_{14}$H$_{21}$NO$_{2}$
-20,1.65,252-255,Reacts,222.9315,Phenyldichloroarsine,C$_{6}$H$_{5}$AsCl$_{2}$
222,,,,308.33,Curcuminoid,C$_{19}$H$_{16}$O$_{4}$
682,4.46,,92.4,256.76,Samarium(III) chloride,SmCl$_{3}$
,,,,,Clovoxamine,C$_{14}$H$_{21}$ClN$_{2}$O$_{2}$
54,,,,,Pseudopelletierine,C$_{9}$H$_{15}$NO
,,,,866.77,Arecatannin B1,C$_{45}$H$_{38}$O$_{18}$
82,,,organic solvents,,Tricyclohexylphosphine,C$_{18}$H$_{33}$P
,,,,,Pecilocin,C$_{17}$H$_{25}$NO$_{3}$
decomposes above 200,,,,1701.19,Tannic acid,C$_{76}$H$_{52}$O$_{46}$
,,,,524.86,Retinyl palmitate,C$_{36}$H$_{60}$O$_{2}$
80,,377,Insoluble,,Triphenylphosphine,C$_{18}$H$_{15}$P
,,,,,Fluvastatin,C$_{24}$H$_{26}$FNO$_{4}$
,,,,,Piperocaine,C$_{16}$H$_{23}$NO$_{2}$
,,,,,Normethadone,C$_{20}$H$_{25}$NO
,,,,,Gestrinone,C$_{21}$H$_{24}$O$_{2}$
,,695.2,,,Daigremontianin,C$_{26}$H$_{30}$O$_{9}$
,,,,,N-Ethyl-3-piperidyl benzilate,
,,,,,Methyl-MMDA-2,C$_{12}$H$_{17}$NO$_{3}$
1291,3.1,,0.56,83.9767,Aluminium fluoride,AlF$_{3}$
,0.855,236.2,,,Pomarose,C$_{11}$H$_{18}$O
,,,,,Carindacillin,C$_{26}$H$_{26}$N$_{2}$O$_{6}$S
205,,,,,Proline,C$_{5}$H$_{9}$NO$_{2}$
743,1.73,1575,,,Borax,Na$_{2}$B$_{4}$O$_{7}$.10H$_{2}$O or Na$_{2}$[B$_{4}$O$_{5}$(OH)$_{4}$].8H$_{2}$O
,,,,,Spiperone,C$_{23}$H$_{26}$FN$_{3}$O$_{2}$
,,,,256.252,Phenyl-D-galactopyranoside,C$_{12}$H$_{16}$O$_{6}$
,,,,,Y-23684,C$_{18}$H$_{13}$ClN$_{2}$O$_{2}$S
,,,,,Degarelix,C$_{82}$H$_{103}$ClN$_{18}$O$_{16}$
,,,,,Tellurite (ion),O$_{3}$Te$^{2-}$
,,,,,SB-215505,C$_{19}$H$_{16}$ClN$_{3}$O
,,,,,Meptazinol,C$_{15}$H$_{23}$NO
,,,,,Perindopril,C$_{19}$H$_{32}$N$_{2}$O$_{5}$
,,,,,Rimiterol,C$_{12}$H$_{17}$NO$_{3}$
,,,,318.369,Nile red,C$_{20}$H$_{18}$N$_{2}$O$_{2}$
,,,,438.44,Nonacosylic acid,C$_{29}$H$_{58}$O$_{2}$
,,,,,Fexaramine,C$_{32}$H$_{36}$N$_{2}$O$_{3}$
,,,,,Diphosphorus,P$_{2}$
131,,,Good,196.16,Gluconic acid,C$_{6}$H$_{12}$O$_{7}$
,,,,,Levocabastine,C$_{26}$H$_{29}$FN$_{2}$O$_{2}$
,,237,,,Perillaldehyde,C$_{10}$H$_{14}$O
-148.8,,-52.25,"slight, Highly reactive",120.035,Thiophosphoryl fluoride,PSF$_{3}$
,,,,427.95,E-6837,C$_{22}$H$_{22}$ClN$_{3}$O$_{2}$S
,,,,,Trapidil,C$_{10}$H$_{15}$N$_{5}$
,,,,249.631,Phaclofen,C$_{9}$H$_{13}$ClNO$_{3}$P
,,,,,Otamixaban,C$_{25}$H$_{26}$N$_{4}$O$_{4}$
,,100-103,,,Actinidine,C$_{10}$H$_{13}$N
,,,,96.198,Trisulfur,S$_{3}$
,,,,,Ampyzine,C$_{17}$H$_{27}$NO$_{2}$
,,,,666.578,Stachyose,C$_{24}$H$_{42}$O$_{21}$
,,,,,Methacholine,C8H18NO2charge+
,,,,144.21,Manzanate,C$_{8}$H$_{16}$O$_{2}$
,,,,,Lasalocid,C$_{34}$H$_{54}$O$_{8}$
-50,,393,,322.43,Di-(2-ethylhexyl)phosphoric acid,C$_{16}$H$_{35}$O$_{4}$P
,,,,216.17,Sodium ferulate,C$_{10}$H$_{9}$NaO$_{4}$
,,,,,Methamphetamine,C$_{10}$H$_{15}$N
1150,6,,insoluble,182.54,Manganese(II) telluride,MnTe
34,1.321,260.7,Soluble,,Ethylene carbonate,C$_{3}$H$_{4}$O$_{3}$
,,,,,Inulin,C$_{6n}$H$_{10n+2}$O$_{5n+1}$
,,,,37.621,Boron monoxide,B$_{2}$O
-87,0.683,42,,68.117,Piperylene,C$_{5}$H$_{8}$
,,,Souble,620.46301,Hydroxynaphthol blue,C$_{20}$H$_{11}$N$_{2}$Na$_{3}$O$_{11}$S$_{3}$
,,,,294.39,Cinchonine,C$_{19}$H$_{22}$N$_{2}$O
,,,,164.21,Pyrimidinylpiperazine,C$_{8}$H$_{12}$N$_{4}$
,,,,,Ondansetron,C$_{18}$H$_{19}$N$_{3}$O
,,,,,Cebaracetam,C$_{16}$H$_{18}$ClN$_{3}$O$_{3}$
277,2.89,,reacts with water,291.71,Chromium(IV) fluoride,CrF$_{4}$
208,1.011,213,slightly soluble (D-form),,Borneol,C$_{10}$H$_{18}$O
,,,,782.52,Punicalin,C$_{34}$H$_{22}$O$_{22}$
,,,,,Pirlindole,C$_{15}$H$_{18}$N$_{2}$
,,,,,Desoxypipradrol,C$_{18}$H$_{21}$N
,,,,,Acenocoumarol,C$_{19}$H$_{15}$NO$_{6}$
,,,,,Saxagliptin,C$_{18}$H$_{25}$N$_{3}$O$_{2}$
,,,Soluble,,Ammonium arsenate,AsH$_{18}$O$_{7}$N$_{3}$
,6.44,,,,Sodium diuranate,Na$_{2}$U$_{2}$O$_{7}$
,,,,,Biphenylindanone A,
,,,,212.32,Burimamide,C$_{9}$H$_{16}$N$_{4}$S
,,,,288.25,Fustin,C$_{15}$H$_{12}$O$_{6}$
,,,,190.1,Sodium adipate,Na$_{2}$C$_{6}$H$_{8}$O$_{4}$
,,,,466.19,Rubrocurcumin,C$_{23}$H$_{19}$BO$_{10}$
,,,,,Loprazolam,C$_{23}$H$_{21}$ClN$_{6}$O$_{3}$
,,,,,Phenelzine,C$_{8}$H$_{12}$N$_{2}$
,,,,,PD 144418,
103,,,,164.21,Azobisisobutyronitrile,C$_{8}$H$_{12}$N$_{4}$
950,,,0.04% (20$^{\circ}$C),209.94,Sodium hexafluoroaluminate,Na$_{3}$AlF$_{6}$
,,,,823.07,Ethylhexyl triazone,C$_{48}$H$_{66}$N$_{6}$O$_{6}$
,,,,,Azipramine,C$_{26}$H$_{26}$N$_{2}$
167,,,,,Pyrrolidinylthiambutene,C$_{16}$H$_{19}$NS$_{2}$
,,,,225.16,Dinitolmide,C$_{8}$H$_{7}$N$_{3}$O$_{5}$
,,,,344.27,Theogallin,C$_{14}$H$_{16}$O$_{10}$
119,1.3,321.8,15.87,,Mandelic acid,C$_{8}$H$_{8}$O$_{3}$
,,,,460.42,Neodymium aluminium borate,NdAl$_{3}$(BO$_{3}$)$_{4}$
,,,,,Dixyrazine,C$_{24}$H$_{33}$N$_{3}$O$_{2}$S
176,,,,,Metaboric acid,H$_{3}$B$_{3}$O$_{6}$
,,,,,SRT2183,C$_{27}$H$_{24}$N$_{4}$O$_{2}$S
,,,,,Dimefline,C$_{20}$H$_{21}$NO$_{3}$
164,,431.369,,,Benzestrol,C$_{20}$H$_{26}$O$_{2}$
80,,,,,Glyoxylic acid,C$_{2}$H$_{2}$O$_{3}$
455,1.68-1.70,,good,72.171,Potassium hydrosulfide,HKS
,,,,,Doliracetam,C$_{16}$H$_{14}$N$_{2}$O$_{2}$
,,,,163.17,Bicine,C$_{6}$H$_{13}$NO$_{4}$
,,,,,Sumanene,C$_{21}$H$_{12}$