Name,formula,Property Molar Mass,Property Molar Mass units,Property Melting Point,Property Melting Point units,Property Density,Property Density units,Property Boiling Point,Property Boiling Point units,Property Solubility
Glimepiride,C$_{24}$H$_{34}$N$_{4}$O$_{5}$S,,,,,,,,,
Polonium dioxide,PoO$_{2}$,,,500,$^{\circ}$C,8.9,g/cm$^{3}$,,,
Encainide,C$_{22}$H$_{28}$N$_{2}$O$_{2}$,,,,,,,,,
Dieldrin,C$_{12}$H$_{8}$Cl$_{6}$O,380.91,g/mol,176-177,$^{\circ}$C,1.75,g/cm$^{3}$,385,$^{\circ}$C,0.02%
Zanolimumab,C$_{6742}$H$_{9972}$N$_{1732}$O$_{2004}$S$_{40}$,,,,,,,,,
Methallylescaline,C$_{14}$H$_{21}$NO$_{3}$,251.321,g/mol,,,,,,,
Sultopride,C$_{17}$H$_{26}$N$_{2}$O$_{4}$S,,,,,,,,,
Sodium selenite,Na$_{2}$SeO$_{3}$,,,decomposes at 710,$^{\circ}$C,3.1,g/cm$^{3}$,,,85
Oregovomab,C$_{17}$H$_{27}$NO$_{3}$,,,,,,,,,
Otenabant,C$_{25}$H$_{25}$Cl$_{2}$N$_{7}$O,,,,,,,,,
Phanquinone,C$_{12}$H$_{6}$N$_{2}$O$_{2}$,,,,,,,,,
Monomethylhydrazine,CH$_{6}$N$_{2}$,,,-52,$^{\circ}$C,,,,,miscible
Flurithromycin,C$_{37}$H$_{66}$FNO$_{13}$,,,,,,,,,
Gymnochrome E,C$_{36}$H$_{26}$Br$_{2}$O$_{10}$,,,,,,,,,
Penfluridol,C$_{28}$H$_{27}$ClF$_{5}$NO,,,,,,,,,
Alsactide,C$_{99}$H$_{155}$N$_{29}$O$_{21}$S,,,,,,,,,
Ticarcillin,C$_{15}$H$_{16}$N$_{2}$O$_{6}$S$_{2}$,,,,,,,,,
Xenon hexafluororhodate,XeRhF$_{6}$,348.1855,g/mol,,,,,,,
Okanin,C$_{15}$H$_{12}$O$_{6}$,288.25,g/mol,,,,,,,
Ampicillin,C$_{16}$H$_{19}$N$_{3}$O$_{4}$S,,,,,,,,,
Xenon tetroxide,XeO$_{4}$,,,-35.9,$^{\circ}$C,,,0,$^{\circ}$C,
Tungsten hexachloride,WCl$_{6}$,396.61,g/mol,275,$^{\circ}$C,3.52,g/cm$^{3}$,346.7,$^{\circ}$C,
Malondialdehyde,C$_{3}$H$_{4}$O$_{2}$,,,72,$^{\circ}$C,,,108,$^{\circ}$C,
Prednicarbate,C$_{27}$H$_{36}$O$_{8}$,,,,,,,,,
Tetraphenylethylene,C$_{26}$H$_{20}$,,,224-225,$^{\circ}$C,1.088,g/cm$^{3}$,424,$^{\circ}$C,
Sodium metavanadate,NaVO$_{3}$,121.9295,g/mol,630,$^{\circ}$C,5.15,g/cm$^{3}$,,,19.3
Tibezonium iodide,,,,,,,,,,
Quinagolide,C$_{20}$H$_{33}$N$_{3}$O$_{3}$S,,,,,,,,,
Mebicar,C$_{8}$H$_{14}$N$_{4}$O$_{2}$,,,,,,,,,
Fomepizole,C$_{4}$H$_{6}$N$_{2}$,,,,,0.99,g/cm$^{3}$,204-207,$^{\circ}$C,
Cereulide,C$_{57}$H$_{96}$N$_{6}$O$_{18}$,,,,,,,,,extremely low
Silver perchlorate,AgClO$_{4}$,207.319,g/mol,486,$^{\circ}$C,2.806,g/cm$^{3}$,,,557
Temefos,C$_{16}$H$_{20}$O$_{6}$P$_{2}$S$_{3}$,,,30,$^{\circ}$C,,,120-125,$^{\circ}$C,insoluble
Anatabine,C$_{10}$H$_{12}$N$_{2}$,,,,,,,,,
Iron pentacarbonyl,Fe(CO)$_{5}$,195.90,g/mol,-21.0,$^{\circ}$C,1.453,g/cm$^{3}$,103,$^{\circ}$C,Insoluble
Purine,C$_{5}$H$_{4}$N$_{4}$,,,214,$^{\circ}$C,,,,,
Carbachol,C$_{6}$H$_{15}$N$_{2}$O$_{2}$Cl,,,,,,,,,
Nobiletin,C$_{21}$H$_{22}$O$_{8}$,,,,,,,,,
Benzo(c)cinnoline,C$_{12}$H$_{8}$N$_{2}$,180.21,g/mol,,,,,,,
BU-48,C$_{27}$H$_{33}$NO$_{4}$,,,,,,,,,
Halomon,C$_{10}$H$_{15}$Br$_{2}$Cl$_{3}$,401.3931,g/mol,56-57,$^{\circ}$C,1.824,g/cm$^{3}$,,,
Deuterated acetone,C$^{2}_{3}$H$_{6}$O,,,-94,$^{\circ}$C,,,56,$^{\circ}$C,
Cilnidipine,C$_{27}$H$_{28}$N$_{2}$O$_{7}$,,,,,,,,,
U-69 593,,,,,,,,,,
Bifeprunox,C$_{24}$H$_{23}$N$_{3}$O$_{2}$,,,,,,,,,
Tungsten(III) oxide,W$_{2}$O$_{3}$,,,,,,,,,
Vanadyl nitrate,VO(NO$_{3}$)$_{3}$,252.953,g/mol,2,$^{\circ}$C,,,86-91,$^{\circ}$C,water
Dauricine,C$_{38}$H$_{44}$N$_{2}$O$_{6}$,,,,,,,,,
Equilin,C$_{18}$H$_{20}$O$_{2}$,,,,,,,,,
Dimethylallyl pyrophosphate,C$_{5}$H$_{12}$O$_{7}$P$_{2}$,,,,,,,,,
Silver sulfite,Ag$_{2}$SO$_{3}$,,,100,$^{\circ}$C,,,,,4.6
LP-12,C$_{32}$H$_{39}$N$_{3}$O,,,,,,,,,
Molybdenum hexafluoride,MoF$_{6}$,209.93,g/mol,,,,,,,
Niobium pentoxide,Nb$_{2}$O$_{5}$,265.81,g/mol,1512,$^{\circ}$C,4.60,g/cm$^{3}$,,,insoluble
Mescaline,C$_{11}$H$_{17}$NO$_{3}$,,,,,,,,,
Potassium tetraiodomercurate(II),K$_{2}$HgI$_{4}$,,,,,4.29,g/cm$^{3}$,,,very soluble
Calcium oxalate,CaC$_{2}$O$_{4}$,,,200,$^{\circ}$C,,,,,6.7
Alpha-Naphthylthiourea,C$_{11}$H$_{10}$N$_{2}$S,,,197.8,$^{\circ}$C,,,,,600
Brodifacoum,C$_{31}$H$_{23}$BrO$_{3}$,,,228-230,$^{\circ}$C,,,,,Insoluble
Chloro(cyclopentadienyl)bis(triphenylphosphine)ruthenium,C$_{41}$H$_{35}$ClP$_{2}$Ru,726.19,g/mol,135,$^{\circ}$C,,,,,Insoluble
Huperzine A,,,,,,,,,,
Tranexamic acid,,,,,,,,,,
Ro4-1539,C$_{22}$H$_{27}$NO$_{2}$,,,,,,,,,
Diphenylpyraline,C$_{19}$H$_{23}$NO,,,,,,,,,
PNU-120 596,,,,,,,,,,
Propoxycaine,C$_{16}$H$_{26}$N$_{2}$O$_{3}$,,,,,,,,,
Velleral,C$_{15}$H$_{20}$O$_{2}$,232.146332,g/mol,,,1.093,g/cm$^{3}$,341.125,$^{\circ}$C,
Barium sulfite,BaSO$_{3}$,217.391,g/mol,,,4.44,g/cm$^{3}$,,,0.0011
Selenoyl fluoride,SeO$_{2}$F$_{2}$,148.95,g/mol,-99.5,$^{\circ}$C,,,-8.4,$^{\circ}$C,
Rhenium diboride,ReB$_{2}$,207.83,g/mol,2400,$^{\circ}$C,12.7,g/cm$^{3}$,,,none
Benzilic acid,C$_{14}$H$_{12}$O$_{3}$,,,150-152,$^{\circ}$C,1.08,g/cm$^{3}$,180,$^{\circ}$C,2
Drotrecogin alfa,,,,,,,,,,
Cythioate,C$_{8}$H$_{12}$NO$_{5}$PS$_{2}$,,,71,$^{\circ}$C,,,,,
Gallium(III) hydroxide,Ga(OH)$_{3}$,120.7437,g/mol,,,,,,,
Cefmetazole,C$_{15}$H$_{17}$N$_{7}$O$_{5}$S$_{3}$,,,,,,,,,
Lumiliximab,C$_{2115}$H$_{3252}$N$_{556}$O$_{673}$S$_{16}$,,,,,,,,,
Methylenedioxyhydroxyamphetamine,C$_{10}$H$_{13}$NO$_{3}$,,,,,,,,,
KM-233,C$_{25}$H$_{30}$O$_{2}$,,,,,,,,,
Phosphoramidon,C$_{23}$H$_{34}$N$_{3}$O$_{10}$P,,,,,,,,,Soluble as sodium salt
Beatrice (psychedelic),C$_{13}$H$_{21}$NO$_{2}$,223.3126,g/mol,,,,,,,
Amoscanate,C$_{13}$H$_{9}$N$_{3}$O$_{2}$S,,,204-206,$^{\circ}$C,,,,,
Isobutyl acetate,C$_{6}$H$_{12}$O$_{2}$,116.16,g/mol,-99,$^{\circ}$C,,,118,$^{\circ}$C,Slightly soluble 0.63-0.7g/100g at 20
Benzofuranylpropylaminopentane,C$_{16}$H$_{23}$NO,,,,,,,,,
Ammonium cerium(IV) sulfate,H$_{20}$N$_{4}$S$_{4}$O$_{18}$Ce,632.55,g/mol,,,,,,,soluble in water
Rubidium iodide,RbI,212.3723,g/mol,646.85,$^{\circ}$C,,,1304,$^{\circ}$C,152
A-836 339,,,,,,,,,,
DOV-102 677,,,,,,,,,,
Centaureidin,C$_{18}$H$_{16}$O$_{8}$,360.31,g/mol,,,,,,,
Naltrexone,C$_{20}$H$_{23}$NO$_{4}$,,,,,,,,,
Metsulfuron-methyl,C$_{14}$H$_{15}$N$_{5}$O$_{6}$S,381.36,g/mol,,,,,,,
Perchlorate,ClO$^{-}_{4}$,,,,,,,,,
Diacetyldihydromorphine,C$_{21}$H$_{25}$NO$_{5}$,,,,,,,,,
Allyl hexanoate,C$_{9}$H$_{16}$O$_{2}$,,,,,,,190-191,$^{\circ}$C,Insoluble
Carbonic acid,H$_{2}$CO$_{3}$,62.03,g/mol,,,1.668,g/cm$^{3}$,,,Exists only in solution
Arsenic pentasulfide,As$_{2}$S$_{5}$,,,300,$^{\circ}$C,,,500,$^{\circ}$C,0.014
Tert-Butyl isocyanide,C$_{5}$H$_{9}$N,83.13,g/mol,,,,,91,$^{\circ}$C,N/A
Adenosine diphosphate ribose,C$_{15}$H$_{23}$N$_{5}$O$_{14}$P$_{2}$,559.316,g/mol,,,,,,,
Cycloleucine,C$_{6}$H$_{11}$NO$_{2}$,129.16,g/mol,320,$^{\circ}$C,,,256.1,$^{\circ}$C,50
Erbium(III) iodide,ErI$_{3}$,,,1020,$^{\circ}$C,,,1280,$^{\circ}$C,
N-Ethylnorketamine,C$_{14}$H$_{18}$ClNO,,,,,,,,,
Etofibrate,C$_{18}$H$_{18}$ClNO$_{5}$,,,,,,,,,
Caryophyllene,C$_{15}$H$_{24}$,204.36,g/mol,,,0.9052,g/cm$^{3}$,,,
Dichlorine hexoxide,Cl$_{2}$O$_{6}$,166.901,g/mol,3.5,$^{\circ}$C,1.65,g/cm$^{3}$,200,$^{\circ}$C,Reacts
Columnidin,C$_{15}$H$_{11}$O$_{6}$,,,,,,,,,
Tropinone,C$_{8}$H$_{13}$NO,139.195,g/mol,42.5,$^{\circ}$C,,,,,
AB-005,C$_{23}$H$_{32}$N$_{2}$O,,,,,,,,,
Pomalidomide,C$_{13}$H$_{11}$N$_{3}$O$_{4}$,,,,,,,,,
Thulium(III) chloride,TmCl$_{3}$,275.292,g/mol,824,$^{\circ}$C,3.98,g/cm$^{3}$,1490,$^{\circ}$C,heptahydrate: very soluble
Methylergometrine,C$_{20}$H$_{25}$N$_{3}$O$_{2}$,,,,,,,,,
Oxazolidine,C$_{3}$H$_{7}$NO,73.0938,g/mol,,,,,,,
Polyprenol,H-(C$_{5}$H$_{8}$)$_{n}$-OH,,,,,0.902-0.905,g/cm$^{3}$,,,Insoluble
Ascorbyl stearate,C$_{24}$H$_{42}$O$_{7}$,442.586,g/mol,,,,,,,
Ipriflavone,C$_{18}$H$_{16}$O$_{3}$,,,,,,,,,
Taurodeoxycholic acid,C$_{26}$H$_{45}$NO$_{5}$S,498.70,g/mol,,,,,,,
Monoethanolamine oleate,,,,,,0.974,g/cm$^{3}$,,,
Cobicistat,C$_{40}$H$_{53}$N$_{7}$O$_{5}$S$_{2}$,,,,,,,,,
Azaloxan,C$_{18}$H$_{25}$N$_{3}$O$_{3}$,,,,,,,,,
Aconitine,C$_{34}$H$_{47}$NO,,,203,$^{\circ}$C,,,,,H$_{2}$O: 0.3
Diproteverine,C$_{26}$H$_{35}$NO$_{4}$,,,,,,,,,
TOMSO,C$_{12}$H$_{19}$NO$_{2}$S,241.350,g/mol,,,,,,,
Vanadyl sulfate,VOSO$_{4}$,163.00,g/mol,105,$^{\circ}$C,,,,,Soluble
Hawkinsin,C$_{11}$H$_{17}$NO$_{6}$S,291.32,g/mol,,,,,,,
Ammonium dihydrogen phosphate,H$_{6}$NO$_{4}$P,,,190,$^{\circ}$C,1.80,g/cm$^{3}$,,,40.4
Ezetimibe,C$_{24}$H$_{21}$F$_{2}$NO$_{3}$,,,,,,,,,
Lanosterol,C$_{30}$H$_{50}$O,426.71,g/mol,138-140,$^{\circ}$C,,,,,
Lodenosine,C$_{10}$H$_{12}$FN$_{5}$O$_{2}$,253.23,g/mol,,,,,,,
Meprednisone,C$_{22}$H$_{28}$O$_{5}$,,,,,,,,,
Ethylammonium nitrate,C$_{2}$NH$_{8}$NO$_{3}$,,,12,$^{\circ}$C,,,240,$^{\circ}$C,
Potassium dimanganate(III),K$_{6}$Mn$_{2}$O$_{6}$,,,,,,,,,
Gallocatechol,C$_{15}$H$_{14}$O$_{7}$,306.267,g/mol,,,,,,,
Isomethadol,C$_{21}$H$_{29}$NO,,,125-126,$^{\circ}$C,,,,,
Bromo-DragonFLY,C$_{13}$H$_{12}$BrNO$_{2}$,,,,,,,,,
Benzaldehyde,C$_{7}$H$_{6}$O,,,,,,,,,0.3
Potassium argentocyanide,KAg(CN)$_{2}$,199.001,g/mol,,,2.36,g/cm$^{3}$,,,Soluble
Chaconine,C$_{45}$H$_{73}$NO$_{14}$,,,,,,,,,
Tetraphenylmethane,C$_{25}$H$_{20}$,320.44,g/mol,272,$^{\circ}$C,,,,,
Tocofersolan,(C$_{2}$H$_{4}$O)$_{n}$C$_{33}$H$_{54}$O$_{5}$,,,,,,,,,
Verucerfont,C$_{22}$H$_{26}$N$_{6}$O$_{2}$,,,,,,,,,
Sodium ferrocyanide,Na$_{4}$Fe(CN)$_{6}$,303.91,g/mol,435,$^{\circ}$C,1.458,g/cm$^{3}$,,,10.2
Chlorine monofluoride,ClF,54.45,g/mol,-155.6,$^{\circ}$C,,,-100.1,$^{\circ}$C,
Jaceidin,C$_{18}$H$_{16}$O$_{8}$,360.31,g/mol,,,,,,,
Acrylonitrile,C$_{3}$H$_{3}$N,,,-84,$^{\circ}$C,0.81,g/cm$^{3}$,77,$^{\circ}$C,
Trichlorosilane,HCl$_{3}$Si,135.45,g/mol,-126.6,$^{\circ}$C,1.342,g/cm$^{3}$,31.8,$^{\circ}$C,hydrolysis
Tetrahydroxyborate,H$_{4}$BO$^{-}_{4}$,,,,,,,,,
Amedalin,C$_{19}$H$_{22}$N$_{2}$O,,,,,,,,,
Ferroin,C$_{36}$H$_{24}$FeN$^{2+}_{6}$,596.27,g/mol,,,,,,,
Dimethoxymethane,C$_{3}$H$_{8}$O$_{2}$,,,,,,,,,
Albaconazole,C$_{20}$H$_{16}$ClF$_{2}$N$_{5}$O$_{2}$,,,,,,,,,
Devarda's alloy,C$_{5}$H$_{5}$NHClCrO$_{3}$,,,490-560,$^{\circ}$C,,,906,$^{\circ}$C,insoluble
Copper gluconate,,,,156,$^{\circ}$C,,,,,30
Nitrosyl fluoride,NOF,,,-166,$^{\circ}$C,,,-72.4,$^{\circ}$C,Reacts
Rimonabant,C$_{22}$H$_{21}$Cl$_{3}$N$_{4}$O,,,,,,,,,
Brecanavir,C$_{33}$H$_{41}$N$_{3}$O$_{10}$S$_{2}$,,,,,,,,,
Dimethyl sulfate,C$_{2}$H$_{6}$O$_{4}$S,126.13,g/mol,-32,$^{\circ}$C,,,188,$^{\circ}$C,Reacts
Ziziphin,C$_{51}$H$_{80}$O$_{18}$,981.17,g/mol,,,1.345,g/cm$^{3}$,,,
Mercury(I) chloride,Hg$_{2}$Cl$_{2}$,472.09,g/mol,525,$^{\circ}$C,7.150,g/cm$^{3}$,383,$^{\circ}$C,0.2
Sulfuryl fluoride,SO$_{2}$F$_{2}$,102.06,g/mol,,,,,,,
Neocuproine,C$_{14}$H$_{12}$N$_{2}$,,,162-164,$^{\circ}$C,,,,,Slightly soluble
Difluocortolone,C$_{22}$H$_{28}$F$_{2}$O$_{4}$,,,,,,,,,
Gallium maltolate,Ga(C$_{6}$H$_{5}$O$_{3}$)$_{3}$,445.03,g/mol,,,,,,,24(2)
Phosphorus trifluoride,PF$_{3}$,87.968971,g/mol,-151.5,$^{\circ}$C,,,-101.8,$^{\circ}$C,slow hydrolysis
Uranyl nitrate,UO$_{2}$(NO$_{3}$)$_{2}$,394.04,g/mol,60.2,$^{\circ}$C,2.81,g/cm$^{3}$,118,$^{\circ}$C,g/100g H2O: 98
Fulvestrant,C$_{32}$H$_{47}$F$_{5}$O$_{3}$S,,,,,,,,,
Octabromodiphenyl ether,C$_{12}$H$_{2}$Br$_{8}$O,801.38,g/mol,,,2.9,g/cm$^{3}$,,,not soluble
Chromium(IV) oxide,CrO$_{2}$,83.9949,g/mol,375,$^{\circ}$C,4.89,g/cm$^{3}$,,,Insoluble
Trimethoprim,C$_{14}$H$_{18}$N$_{4}$O$_{3}$,,,,,,,,,
Dopamine,C$_{8}$H$_{11}$NO$_{2}$,,,,,,,,,
Trofosfamide,C$_{9}$H$_{18}$Cl$_{3}$N$_{2}$O$_{2}$P,,,,,,,,,
Finafloxacin,chemical_formulaC$_{20}$H$_{19}$FN$_{4}$O$_{4}$,,,,,,,,,
Coumachlor,C$_{19}$H$_{15}$ClO$_{4}$,342.77,g/mol,,,,,,,
Plicatol B,C$_{15}$H$_{12}$O$_{3}$,,,,,,,,,
Nylon 12,(C$_{12}$H$_{23}$NO)$_{n}$,,,178-180,$^{\circ}$C,,,,,
Omacetaxine mepesuccinate,,,,,,,,,,
Magnesium orthosilicate,Mg$_{2}$SiO$_{4}$,140.693,g/mol,1890,$^{\circ}$C,3.21,g/cm$^{3}$,,,insoluble
Manganese(II) iodide,MnI$_{2}$,308.747,g/mol,701,$^{\circ}$C,5.01,g/cm$^{3}$,1033,$^{\circ}$C,soluble
Potassium metabisulfite,K$_{2}$O$_{5}$S$_{2}$,,,190,$^{\circ}$C,2.34,g/cm$^{3}$,,,450
Nicodicodeine,C$_{24}$H$_{26}$N$_{2}$O$_{4}$,,,,,,,,,
Cyclopentadienylthallium,C$_{5}$H$_{5}$Tl,,,300,$^{\circ}$C,,,,,Insoluble
Cinchonidine,C$_{19}$H$_{22}$N$_{2}$O,294.43,g/mol,204,$^{\circ}$C,,,464.5,$^{\circ}$C,slightly soluble  0.25
Testosterone undecanoate,,,,,,,,,,
Bismuth(III) nitrate,Bi(NO$_{3}$)$_{3}$.5H$_{2}$O,485.07,g/mol,,,2.90,g/cm$^{3}$,,,
Camphoric acid,C$_{10}$H$_{16}$O$_{4}$,,,183-187,$^{\circ}$C,1.21,g/cm$^{3}$,,,
Depramine,C$_{19}$H$_{22}$N$_{2}$,,,,,,,,,
S-Allyl cysteine,C$_{6}$H$_{11}$NO$_{2}$S,161.22,g/mol,219-220,$^{\circ}$C,,,,,
Rifabutin,C$_{46}$H$_{62}$N$_{4}$O,,,,,,,,,
Trifluoromethanesulfonic anhydride,C$_{2}$F$_{6}$O$_{5}$S$_{2}$,,,,,,,82,$^{\circ}$C,
Busulfan,C$_{6}$H$_{14}$O$_{6}$S$_{2}$,,,,,,,,,
Etofenprox,C$_{25}$H$_{28}$O$_{3}$,,,37.4,$^{\circ}$C,,,degradation at about 200,$^{\circ}$C,
MBX-8025,chemical_formulaC$_{20}$H$_{18}$F$_{3}$N$_{3}$O$_{3}$S,,,,,,,,,
BOD (psychedelic),C$_{12}$H$_{19}$NO$_{3}$,225.28,g/mol,,,,,,,
Sodium dichromate,Na$_{2}$Cr$_{2}$O$_{7}$,261.97,g/mol,356.7,$^{\circ}$C,2.52,g/cm$^{3}$,400,$^{\circ}$C,73
Org 28312,,,,,,,,,,
Thunberginol E,C$_{16}$H$_{14}$O$_{6}$,302.27,g/mol,,,,,,,
Flavokavain B,C$_{17}$H$_{16}$O$_{4}$,,,,,,,,,
Antimony pentasulfide,Sb$_{2}$S$_{5}$,,,135,$^{\circ}$C,,,,,insoluble
Trifluoromethyl hypofluorite,OCF$_{4}$,,,-213,$^{\circ}$C,,,-95,$^{\circ}$C,
Terguride,C$_{20}$H$_{28}$N$_{4}$O,,,,,,,,,
Iron(II) fluoride,FeF$_{2}$,93.84,g/mol,970,$^{\circ}$C,4.09,g/cm$^{3}$,1100,$^{\circ}$C,165
Tienilic acid,,,,,,,,,,
Myxothiazol,C$_{25}$H$_{33}$N$_{3}$O$_{3}$S$_{2}$,487.68,g/mol,,,,,,,
Triethylene glycol dinitrate,C$_{6}$H$_{12}$N$_{2}$O$_{8}$,,,-19,$^{\circ}$C,1.33,g/cm$^{3}$,,,
Calcium carbonate,CaCO$_{3}$,100.0869,g/mol,,,,,,,0.013
Osthol,C$_{15}$H$_{16}$O$_{3}$,,,,,,,,,
Ethonam,C$_{16}$H$_{18}$N$_{2}$O$_{2}$,,,,,,,,,
DL-Phosphinothricin,C$_{5}$H$_{15}$N$_{2}$O$_{4}$P,,,205,$^{\circ}$C,,,Decomp 245-305,$^{\circ}$C,
Diacetyl,C$_{4}$H$_{6}$O$_{2}$,,,-2--4,$^{\circ}$C,,,88,$^{\circ}$C,Soluble in 4 parts
Carglumic acid,,,,,,,,,,
Olmesartan,C$_{29}$H$_{30}$N$_{6}$O$_{6}$,,,,,,,,,
Isobutylgermane,C$_{4}$H$_{12}$Ge,,,,,,,66,$^{\circ}$C,Insoluble in water
Clofazimine,C$_{27}$H$_{22}$Cl$_{2}$N$_{4}$,,,,,,,,,
MG132,C$_{26}$H$_{41}$N$_{3}$O$_{5}$,,,,,,,,,
Pyridinoline,C$_{18}$H$_{28}$N$_{4}$O$_{8}$,,,,,,,,,
Nintedanib,C$_{23}$H$_{25}$BrN$_{2}$O$_{3}$,,,,,,,,,
Triamterene,C$_{12}$H$_{11}$N$_{7}$,,,,,,,,,
Lauryl methyl gluceth-10 hydroxypropyl dimonium chloride,Ca$_{12}$Al$_{14}$O$_{33}$,,,,,,,,,
Cyclopentanone,C$_{5}$H$_{8}$O,84.12,g/mol,-58.2,$^{\circ}$C,,,130.6,$^{\circ}$C,Slightly soluble
Titanium carbide,TiC,59.89,g/mol,3160,$^{\circ}$C,4.93,g/cm$^{3}$,4820,$^{\circ}$C,insoluble in water
Cobalt boride,C$_{26}$H$_{14}$N$_{2}$O$_{4}$,,,1460,$^{\circ}$C,7.25,g/cm$^{3}$,,,
Flavan,C$_{15}$H$_{14}$O,210.27,g/mol,,,,,,,
Ximelagatran,C$_{24}$H$_{35}$N$_{5}$O$_{5}$,,,,,,,,,
Cichoric acid,C$_{22}$H$_{18}$O$_{12}$,474.371,g/mol,,,,,,,
Lactide,C$_{6}$H$_{8}$O$_{4}$,,,95-97,$^{\circ}$C,,,,,Hydrolyses to lactic acid
Boldione,C$_{19}$H$_{24}$O$_{2}$,284.39,g/mol,,,,,,,
Etaracizumab,C$_{6392}$H$_{9908}$N$_{1732}$O$_{1996}$S$_{42}$,,,,,,,,,
Flephedrone,C$_{10}$H$_{12}$FNO,,,,,,,,,
Amorpha-4 11-diene,C$_{15}$H$_{24}$,204.35,g/mol,,,,,,,
Avobenzone,C$_{20}$H$_{22}$O$_{3}$,310.39,g/mol,,,,,,,
Glabridin,C$_{20}$H$_{20}$O$_{4}$,,,156,$^{\circ}$C,,,,,
N-Cyclohexyl-2-pyrrolidone,C$_{10}$H$_{17}$NO,,,12,$^{\circ}$C,1.007,g/cm$^{3}$,284,$^{\circ}$C,
Norethynodrel,C$_{20}$H$_{26}$O$_{2}$,,,,,,,,,
Faropenem,C$_{12}$H$_{15}$NO$_{5}$S,,,,,,,,,
Oxymetholone,C$_{21}$H$_{32}$O$_{3}$,,,,,,,,,
Pterostilbene,C$_{16}$H$_{16}$O$_{3}$,256.296,g/mol,,,,,,,
Cylindrospermopsin,C$_{15}$H$_{21}$N$_{5}$O$_{7}$S,,,,,,,,,High
Cadmium tetrafluoroborate,Cd(BF$_{4}$)$_{2}$,286.020,g/mol,,,1.60,g/cm$^{3}$,,,very soluble
Histrelin,C$_{66}$H$_{86}$N$_{18}$O$_{12}$,,,,,,,,,
Neptunium hexafluoride,NpF$_{6}$,,,54.4,$^{\circ}$C,,,55.18,$^{\circ}$C,
Docosatetraenoic acid,C$_{22}$H$_{36}$O$_{2}$,332.5,g/mol,,,,,,,
Dipropyl ether,C$_{6}$H$_{14}$O,,,-122,$^{\circ}$C,0.75,g/cm$^{3}$,90,$^{\circ}$C,3
ABT-670,C$_{19}$H$_{23}$N$_{3}$O$_{2}$,,,,,,,,,
Cobalt(II) hydroxide,Co(OH)$_{2}$,92.948,g/mol,168,$^{\circ}$C,3.597,g/cm$^{3}$,,,3.20
Orange GGN,C$_{16}$H$_{10}$N$_{2}$Na$_{2}$O$_{7}$S$_{2}$(disodiumsalt),452.369,g/mol,,,,,,,
Epicriptine,C$_{32}$H$_{43}$N$_{5}$O$_{5}$,,,,,,,,,
Altoqualine,C$_{27}$H$_{36}$N$_{2}$O$_{8}$,,,144,$^{\circ}$C,,,,,
Silver acetylide,C$_{2}$Ag$_{2}$,,,120,$^{\circ}$C,,,,,insoluble
Trirhenium nonachloride,ReCl$_{3}$,292.57,g/mol,,,,,500,$^{\circ}$C,hydrolyzes to form Re$_{2}$O$_{3}^{.}$xH$_{2}$O.
Amineptine,C$_{22}$H$_{28}$NO$_{2}$,,,,,,,,,
Magnesium acetate,Mg(CH$_{3}$COO)$_{2}$,,,80,$^{\circ}$C,1.45,g/cm$^{3}$,,,Soluble
Deferiprone,C$_{7}$H$_{9}$NO$_{2}$,,,,,,,,,
Afzelin,C$_{21}$H$_{20}$O$_{10}$,,,,,,,,,
Adenylosuccinate,C$_{14}$H$_{18}$N$_{5}$O$_{11}$P,463.294,g/mol,,,,,,,
Denileukin diftitox,,,,,,,,,,
Triethyl phosphate,C$_{6}$H$_{15}$O$_{4}$P,182.15,g/mol,-56.5,$^{\circ}$C,1.072,g/cm$^{3}$,215,$^{\circ}$C,Miscible
Nitromethaqualone,C$_{16}$H$_{13}$N$_{3}$O$_{4}$,,,,,,,,,
Heptene,C$_{7}$H$_{14}$,,,-119,$^{\circ}$C,,,94,$^{\circ}$C,
Potassium polonide,K$_{2}$Po,287.18,g/mol,,,,,,,
Aprepitant,C$_{23}$H$_{21}$F$_{7}$N$_{4}$O$_{3}$,,,,,,,,,
Avoparcin,C$_{89}$H$_{102}$ClN$_{9}$O$_{36}$($\alpha$),,,,,,,,,
Benzyl bromide,C$_{7}$H$_{7}$Br,,,-3.9,$^{\circ}$C,1.438,g/cm$^{3}$,201,$^{\circ}$C,
Pitrakinra,C$_{651}$H$_{1054}$N$_{190}$O$_{200}$S$_{8}$,,,,,,,,,
Sulfamerazine,C$_{11}$H$_{12}$N$_{4}$O$_{2}$S,,,,,,,,,
Calcium stearoyl-2-lactylate,C$_{48}$H$_{86}$CaO$_{12}$,,,45,$^{\circ}$C,,,,,sparingly soluble
Monocalcium citrate,C$_{12}$H$_{14}$CaO$_{14}$,422.31,g/mol,,,,,,,
Diuranium pentoxide,U$_{2}$O$_{5}$,556.055,g/mol,,,,,,,
Difluoropine,C$_{23}$H$_{25}$F$_{2}$NO$_{3}$,,,,,,,,,
Sudan I,C$_{16}$H$_{12}$N$_{2}$O,248.28,g/mol,131,$^{\circ}$C,,,,,
Trans-3-Methyl-4-octanolide,C$_{9}$H$_{16}$O$_{2}$,,,,,,,,,
Zinc gluconate,C$_{12}$H$_{22}$O$_{14}$Zn,455.685,g/mol,172-175,$^{\circ}$C,,,,,
Hydroxypropyl cellulose,variable,,,,,,,,,
Phthalic anhydride,C$_{8}$H$_{4}$O$_{3}$,148.1,g/mol,131.6,$^{\circ}$C,,,295,$^{\circ}$C,0.62
Tetramethylenedisulfotetramine,C$_{4}$H$_{8}$N$_{4}$O$_{4}$S$_{2}$,240.26,g/mol,255-260,$^{\circ}$C,,,,,0.25
Vabicaserin,C$_{15}$H$_{21}$ClN$_{2}$,,,,,,,,,
Prenoxdiazine,C$_{23}$H$_{27}$N$_{3}$O,,,,,,,,,
Pentanal,C$_{5}$H$_{10}$O,,,-60,$^{\circ}$C,,,102-103,$^{\circ}$C,Very slightly soluble
Bottromycin,C$_{42}$H$_{62}$N$_{8}$O$_{7}$S,,,,,,,,,
Perflenapent,C$_{5}$F$_{12}$,,,-115,$^{\circ}$C,,,28,$^{\circ}$C,
Curcumin,C$_{21}$H$_{20}$O$_{6}$,,,183,$^{\circ}$C,,,,,
Toltrazuril,C$_{18}$H$_{14}$F$_{3}$N$_{3}$O$_{4}$S,,,,,,,,,
Imidacloprid,C$_{9}$H$_{10}$ClN$_{5}$O$_{2}$,,,136.4-143.8,$^{\circ}$C,,,,,0.51
Vanadium pentafluoride,VF$_{5}$,,,19.5,$^{\circ}$C,2.502,g/cm$^{3}$,48.3,$^{\circ}$C,
Omigapil,C$_{19}$H$_{17}$NO,,,,,,,,,
Technetium (99mTc) arcitumomab,C$_{10}$H$_{13}$FN$_{2}$,,,,,,,,,
Ciluprevir,C$_{40}$H$_{50}$N$_{6}$O$_{8}$S,,,,,,,,,
Serine,C$_{3}$H$_{7}$NO$_{3}$,,,246,$^{\circ}$C,1.603,g/cm$^{3}$,,,soluble
Isepamicin,C$_{22}$H$_{43}$N$_{5}$O$_{12}$,,,,,,,,,
Asimadoline,C$_{27}$H$_{30}$N$_{2}$O$_{2}$,,,,,,,,,
Hippuristanol,C$_{28}$H$_{46}$O$_{5}$,462.66,g/mol,,,,,,,
Trihydrogen cation,H$^{+}_{3}$,,,,,,,,,
Carnosic acid,C$_{20}$H$_{28}$O$_{4}$,,,,,,,,,
Hemopressin,C$_{53}$H$_{77}$N$_{13}$O$_{12}$,,,,,,,,,
Dicarbonyltris(triphenylphosphine)ruthenium(0),C$_{56}$H$_{45}$O$_{2}$P$_{3}$Ru,,,,,,,,,insoluble
Carnosine,C$_{9}$H$_{14}$N$_{4}$O$_{3}$,,,253,$^{\circ}$C,,,,,
PSN-632 408,,,,,,,,,,
Noscapine,C$_{22}$H$_{23}$NO$_{7}$,,,,,,,,,
A-77636,C$_{20}$H$_{27}$NO$_{3}$,,,,,,,,,
N-Methylcarfentanil,C$_{17}$H$_{24}$N$_{2}$O$_{3}$,,,,,,,,,
Antheraxanthin,C$_{40}$H$_{56}$O$_{3}$,,,,,,,,,
Amidephrine,C$_{10}$H$_{16}$N$_{2}$O$_{3}$S,,,,,,,,,
Risocaine,C$_{10}$H$_{13}$NO$_{2}$,,,,,,,,,
Enpiprazole,C$_{16}$H$_{21}$ClN$_{4}$,,,,,,,,,
Mycophenolic acid,,,,,,,,,,
Phloroglucinol carboxylic acid,C$_{7}$H$_{6}$O$_{5}$,170.11954,g/mol,,,,,,,
Molybdenum(III) bromide,MoBr$_{3}$,335.70,g/mol,500,$^{\circ}$C,4.89,g/cm$^{3}$,,,insoluble
Fluanisone,C$_{21}$H$_{25}$FN$_{2}$O$_{2}$,,,,,,,,,
N-Formylmethionine,C$_{6}$H$_{11}$NO$_{3}$S,177.22,g/mol,,,,,,,
Voriconazole,C$_{16}$H$_{14}$F$_{3}$N$_{5}$O,,,,,,,,,
Veratridine,C$_{36}$H$_{51}$NO,,,160,$^{\circ}$C,,,,,
Sparsomycin,C$_{13}$H$_{19}$N$_{3}$O$_{5}$S$_{2}$,,,,,,,,,
Fexofenadine,C$_{32}$H$_{39}$NO$_{4}$,,,,,,,,,