Property Melting Point,Property Density,Property Boiling Point,Property Solubility,Property Molar Mass,Name,formula
,,,,,Linoleic acid,C$_{18}$H$_{32}$O$_{2}$
,,,,,Dalfopristin,C$_{34}$H$_{50}$N$_{4}$O$_{9}$S
,,,,,Pyrethrin I,C$_{21}$H$_{28}$O$_{3}$
2852,3.58,3600,0.00062,40.3044,Magnesium oxide,MgO
,,,,,Ecastolol,C$_{26}$H$_{33}$N$_{3}$O$_{6}$
,,,,,Phenazepam,C$_{15}$N$_{2}$H$_{10}$OBrCl
-42,1.022,198,Moderate,,Soman,C$_{7}$H$_{16}$FO$_{2}$P
216,,774,,596.84,Astaxanthin,C$_{40}$H$_{52}$O$_{4}$
400,,,,,DIDS,C$_{16}$H$_{10}$N$_{2}$O$_{6}$S$_{4}$
,,,,,Piperaquine,C$_{29}$H$_{32}$Cl$_{2}$N$_{6}$
48-50,,244,organic solvents,326.28,Triphenyl phosphate,C$_{18}$H$_{15}$O$_{4}$P
,,,2,,Potassium aluminium fluoride,KAlF$_{4}$
> 300,,> 300,Soluble,1355.38,Cyanocobalamin,C$_{63}$H$_{88}$CoN$_{14}$O$_{14}$P
,,,,,Brimonidine,C$_{11}$H$_{10}$BrN$_{5}$
,,,,,Delamanid,C$_{25}$H$_{25}$F$_{3}$N$_{4}$O$_{6}$
,,,,74.14,Tetramethylammonium,C$_{4}$H$_{12}$N+
,,,,476.58,Betamethasone 17-valerate,C$_{27}$H$_{37}$FO$_{6}$
,,,,,LY-404 039,
159,,,"Almost insoluble in water(<0.01%),  Very soluble in chloroform",,Lidoflazine,C$_{30}$H$_{35}$F$_{2}$N$_{3}$O
2973,,,insoluble,,Boron nitride,BN
,,,,,Suritozole,C$_{10}$H$_{10}$FN$_{3}$S
,,,,,Oltipraz,C$_{8}$H$_{6}$N$_{2}$S$_{3}$
,,,,,Cerium acetylacetonate,CeC$_{15}$H$_{21}$O$_{6}$
592,3.24,,4.95,261.337,Barium nitrate,Ba(NO$_{3}$)$_{2}$
,,,,,Heme A,C$_{49}$H$_{56}$O$_{6}$N$_{4}$Fe
,,,,,Meglutol,C$_{6}$H$_{10}$O$_{5}$
,,,,,Befuraline,C$_{20}$H$_{20}$N$_{2}$O$_{2}$
-122.8,,46.7,0.27,,N-Propyl chloride,C$_{3}$H$_{7}$Cl
,,,,,Mupirocin,C$_{26}$H$_{44}$O$_{9}$
,,,,,Apricitabine,C$_{8}$H$_{11}$N$_{3}$O$_{3}$S
,,,,280.324,Hydroxystilbamidine,C$_{16}$H$_{16}$N$_{4}$O
85,,163,,,Diphenyl-2-pyridylphosphine,C$_{17}$H$_{14}$NP
170,2.65,,insoluble,351.901,Tungsten hexacarbonyl,C$_{6}$O$_{6}$W
,,,,,Immepip,C$_{9}$H$_{15}$N$_{3}$
,,,,,Pacritinib,C$_{28}$H$_{32}$N$_{4}$O$_{3}$
,,,20,,Methoctramine,C$_{36}$H$_{62}$N$_{4}$O$_{2}$
,,,,,Quebecol,C$_{24}$H$_{26}$O$_{7}$
711,5.15,,166.7,391.136,Barium iodide,BaI$_{2}$(anhydrous)
,,222,,,N-Formylpiperidine,C$_{6}$H$_{11}$NO
,,,,404.16,Behentrimonium chloride,C$_{25}$H$_{54}$ClN
,,,,566.302,Uridine diphosphate glucose,C$_{15}$H$_{24}$N$_{2}$O$_{17}$P$_{2}$
,,,,,BU-LAD,C$_{23}$H$_{31}$N$_{3}$O
400,1.074,500,"soluble, reacts with water",37.83,Sodium borohydride,NaBH$_{4}$
2341,8.6,3945,slightly soluble in acids,385.866,Thulium(III) oxide,Tm$_{2}$O$_{3}$
,,,,,Dexoxadrol,C$_{20}$H$_{23}$NO$_{2}$
174.5,,,,,Dipropyltryptamine,C$_{16}$H$_{24}$N$_{2}$
,,,,,Cloxazolam,C$_{17}$H$_{14}$Cl$_{2}$N$_{2}$O$_{2}$
,,,,235.32,Meprylcaine,C$_{14}$H$_{21}$NO$_{2}$
,,,,,Pipequaline,C$_{22}$H$_{24}$N$_{2}$
,,,,,Celiprolol,C$_{20}$H$_{33}$N$_{3}$O$_{4}$
,,,,,Icotinib,C$_{22}$H$_{21}$N$_{3}$O$_{4}$
,,,,,Buspirone,C$_{21}$H$_{31}$N$_{5}$O$_{2}$
,1.5,70-75,,114.98,Thiophosgene,CSCl$_{2}$
,,,,,Nadifloxacin,C$_{19}$H$_{21}$FN$_{2}$O$_{4}$
,,,,,Benzonatate,C$_{30}$H$_{53}$NO
,,,,147.586,Copper(II) azide,Cu(N$_{3}$)$_{2}$
,,,,,Toremifene,C$_{26}$H$_{28}$ClNO
,0.977,166,Practically insoluble,,A-Santalol,C$_{15}$H$_{24}$O
,,,,,Tarenflurbil,C$_{15}$H$_{13}$FO$_{2}$
,,,,329.59848,Zinc L-aspartate,C$_{8}$H$_{12}$N$_{2}$O$_{8}$Zn
,,,,,Chidamide,chemical_formulaC$_{22}$H$_{19}$FN$_{4}$O$_{2}$
,,,,,Pethidine,C$_{15}$H$_{21}$NO$_{2}$
,1.735,,43,219.5,Zinc acetate,ZnC$_{4}$H$_{6}$O$_{4}$(DIH$_{y}$DRaTe)
200,1.77,,0.23,380.907,Endrin,C$_{12}$H$_{8}$Cl$_{6}$O
,,,,,Phenyltoloxamine,C$_{17}$H$_{21}$NO
,,,,,Nitropentadecene,C$_{15}$H$_{29}$NO$_{2}$
150,,,,212.2,Propyl gallate,C$_{10}$H$_{12}$O$_{5}$
,,,,318.49,Allopregnanolone,C$_{21}$H$_{34}$O$_{2}$
,,,,,Pyriprole,C$_{18}$H$_{10}$Cl$_{2}$F$_{5}$N$_{5}$S
,,,,,Nedaplatin,C$_{2}$H$_{8}$AsN$_{2}$O$_{3}$Pt
1055,7.65,,,137.89,Cobalt(II) selenide,CoSe
222,,,,489.96,Cyclopentadienylmolybdenum tricarbonyl dimer,Mo$_{2}$($\eta$-C$_{5}$H$_{5}$)$_{2}$(CO)$_{6}$}$}$
,,,,,JWH-359,C$_{24}$H$_{36}$O$_{2}$
,,,,,Pantoprazole,C$_{16}$H$_{15}$F$_{2}$N$_{3}$O$_{4}$S
,,,,,Adecatumumab,C$_{6552}$H$_{10080}$N$_{1740}$O$_{2052}$S$_{46}$
152,1.242,,,,Megaphone (molecule),C$_{22}$H$_{30}$O$_{6}$
,,,,,Chrysin,C$_{15}$H$_{10}$O$_{4}$
32,1.507,135,5.710$^{-5}$ g/L,,Transfluthrin,C$_{15}$H$_{12}$Cl$_{2}$F$_{4}$O$_{2}$
,,,,195.2,MES (buffer),C$_{6}$H$_{13}$NO$_{4}$S
,,,,166.22,Spirodecanedione,C$_{10}$H$_{14}$O$_{2}$
,,,,,Abciximab,C$_{2101}$H$_{3229}$N$_{551}$O$_{673}$S$_{15}$
327,,,,,Hexabromobenzene,C$_{6}$Br$_{6}$
,,,,,Gastrodigenin,C$_{7}$H$_{8}$O$_{2}$
,,,,,Cefodizime,C$_{20}$H$_{20}$N$_{6}$O$_{7}$S$_{4}$
54,1.324,244.5,insoluble,,Phenacyl chloride,C$_{8}$H$_{7}$OCl
-143.95,0.681,34.067,,68.12,Isoprene,C$_{5}$H$_{8}$
,,,,,Meloxicam,C$_{14}$H$_{13}$N$_{3}$O$_{4}$S$_{2}$
,,,,272.25,Pinobanksin,C$_{15}$H$_{12}$O$_{5}$
315,4.32,,59.5,229.8402,Arsenic pentoxide,As$_{2}$O$_{5}$
,,,1.589,154.25,Linalool,C$_{10}$H$_{18}$O
,,,49,186.2192,Calcium propanoate,C$_{6}$H$_{10}$CaO$_{4}$
,,,,,Rivaroxaban,C$_{19}$H$_{18}$ClN$_{3}$O$_{5}$S
,,,1.24,,Diiodomethane,CH$_{2}$I$_{2}$
875,,,reacts with water,,Sodium selenide,Na$_{2}$Se
,,,,934.64,Stenophyllanin A,C$_{42}$H$_{30}$O$_{25}$
100-110,,,,319.85,Methylene blue,C$_{16}$H$_{18}$N$_{3}$SCl
,,,,,Sulfathiourea,C$_{7}$H$_{9}$N$_{3}$O$_{2}$S$_{2}$
,,,,322.22,Digallic acid,C$_{14}$H$_{10}$O$_{9}$
,,,,,Neomycin,C$_{23}$H$_{46}$N$_{6}$O$_{13}$
,,,,496.661,Leukotriene D4,C$_{25}$H$_{40}$N$_{2}$O$_{6}$S
114-118,1.18-1.21,,825,200.62,MCPA,C$_{9}$H$_{9}$ClO$_{3}$
2177,6.2,3730,insoluble,328.24,Cerium(III) oxide,Ce$_{2}$O$_{3}$
,,,,247.68,Forchlorfenuron,C$_{12}$H$_{10}$ClN$_{3}$O
910,4.43,,1.32,167.21,Zirconium tetrafluoride,ZrF$_{4}$
,,,,,Elosulfase alfa,
28.6,0.89,284,,186.29,Undecylic acid,C$_{11}$H$_{22}$O$_{2}$
118.5,,311,31,,Methiocarb,C$_{11}$H$_{15}$NO$_{2}$S
,,,,,Marbofloxacin,C$_{17}$H$_{19}$FN$_{4}$O$_{4}$
,,,,354.343,Carpanone,C$_{20}$H$_{18}$O$_{6}$
,,,,,Mivacurium chloride,
,,,,,BMS-345541,C$_{14}$H$_{17}$N$_{5}$
,,,,,Erbium(III) boride,ErB$_{4}$
,,,,368.191,Orotidine 5'-monophosphate,C$_{10}$H$_{13}$N$_{2}$O$_{11}$P
,,258-260,,,Thujopsene,C$_{15}$H$_{24}$
76-79,,63-65,,134.13,Phenylglyoxal,C$_{8}$H$_{6}$O$_{2}$
-114.22,,-85.05,823,,Hydrogen chloride,HCl
,,,,311.37,Thebaine,C$_{19}$H$_{21}$NO$_{3}$
,,,,95.904,Hypobromite,BrO$^{-}$
,,,,,Mangiferin,C$_{19}$H$_{18}$O
,,193-195,,141.21,Hygrine,C$_{8}$H$_{15}$NO
,,,,,CP-1414S,C$_{15}$H$_{12}$N$_{4}$O$_{3}$
,,,,,Oxetorone,C$_{21}$H$_{21}$NO$_{2}$
,,,,873.014,Growth hormone releasing hexapeptide,C$_{46}$H$_{56}$N$_{12}$O$_{6}$
,,,,,MMPIP,C$_{19}$H$_{19}$N$_{3}$O$_{3}$
,,,,,Arotinolol,C$_{15}$H$_{21}$N$_{3}$O$_{2}$S$_{3}$
,,,,842.83,Foeniculoside I,C$_{48}$H$_{42}$O$_{14}$
130-131,,271,moderately soluble in water,,N-Methyltyramine,C$_{9}$H$_{13}$NO
,,,,,Bamipine,C$_{19}$H$_{24}$N$_{2}$
,,,,,BD1052,C$_{17}$H$_{24}$N$_{2}$Cl$_{2}$
265,,349,,580.468,Tantalum(V) bromide,Ta$_{2}$Br$_{10}$
,,,,,Prosultiamine,C$_{15}$H$_{24}$N$_{4}$O$_{2}$S$_{2}$
,,,,498.4,Nitrazine,C$_{16}$H$_{10}$N$_{4}$O$_{11}$S$_{2}$
,,,,,Enprofylline,C$_{8}$H$_{10}$N$_{4}$O$_{2}$
,,,,473.43,Aluminon,C$_{22}$H$_{23}$N$_{3}$O$_{9}$
,,,,,Amikhelline,C$_{18}$H$_{21}$NO$_{5}$
180-181,,,,,P-Toluic acid,C$_{8}$H$_{8}$O$_{2}$
,,,,,Azidocillin,C$_{16}$H$_{17}$N$_{5}$O$_{4}$S
-8,1.107,208,,80.09,Pyridazine,C$_{4}$H$_{4}$N$_{2}$
,,,,,Vincamine,C$_{21}$H$_{26}$N$_{2}$O$_{3}$
98-100,,233-234,,,Dichloroacetamide,C$_{2}$H$_{3}$Cl$_{2}$NO
,,,,,Pinaverium,C$_{26}$H$_{41}$BrNO$_{4}$
,,,,,Asoxime chloride,
917,,,moderately soluble,169.11,Lithium borate,Li$_{2}$B$_{4}$O$_{7}$
,,,,,Gemifloxacin,C$_{18}$H$_{20}$FN$_{5}$O$_{4}$
,,,,781.013,Rosocyanine,[B(C$_{21}$H$_{19}$O$_{6}$)$_{2}$]Cl(aschloride)
,,,,,Mecamylamine,C$_{11}$H$_{21}$N
,,,,103.02,Chromium(III) hydroxide,Cr(OH)$_{3}$
187-190,,,organic solvents,,XPhos,C$_{33}$H$_{49}$P
,,,,,ALD-52,C$_{22}$H$_{27}$N$_{3}$O$_{2}$
,,,,,Benzydamine,C$_{19}$H$_{23}$N$_{3}$O
,,,,,Distigmine,C$_{22}$H$_{32}$Br$_{2}$N$_{4}$O$_{4}$
,,,,330.29,Tricin,C$_{17}$H$_{14}$O$_{7}$
-53,,101-102,,,Trimethyl orthoformate,C$_{4}$H$_{10}$O$_{3}$
,,,,,Mercury(II) hydroxide,H$_{2}$HgO$_{2}$
,,,,,AM-919,C$_{27}$H$_{44}$O$_{4}$
,,,,,Tolbutamide,C$_{12}$H$_{18}$N$_{2}$O$_{3}$S
,,,,,Ethyl glucuronide,
817,3.97,1727,100,246.48,Cerium(III) chloride,CeCl$_{3}$
390,2.26,,,,Calcium nitrite,Ca(NO$_{2}$)$_{2}$
,,,,,Atomoxetine,C$_{17}$H$_{21}$NO
175-178,,,,,Salicylhydroxamic acid,C$_{7}$H$_{7}$NO$_{3}$
241-242,,,< 0.1,,Bromocresol purple,C$_{21}$H$_{16}$Br$_{2}$O$_{5}$S
,,,40,,Pentane,C$_{5}$H$_{12}$
77,,,insoluble in water,,Cannabinol,C$_{21}$H$_{26}$O$_{2}$
54,1.1,,Insoluble,,Nonivamide,C$_{17}$H$_{27}$NO$_{3}$
858,2.48,1502,anhydrous:   92,58.0967,Potassium fluoride,KF
,,,,,Paroxetine,C$_{19}$H$_{20}$FNO$_{3}$
,,,,,Levo$\beta$xolol,C$_{18}$H$_{29}$NO$_{3}$
,,,,561.46,Vitisin A (pyranoanthocyanin),C$_{26}$H$_{25}$O$^{+}_{14}$
,,,,352.4,Dehydrocorybulbine,C$_{21}$H$_{22}$NO$^{+}_{4}$
,,,,,Somatrem,C$_{995}$H$_{1537}$N$_{263}$O$_{301}$S$_{8}$
,,,,,S-14671,C$_{22}$H$_{25}$N$_{3}$O$_{2}$S
,,,,248.1,Benzoquinonetetracarboxylic dianhydride,C$_{10}$O$_{8}$
,,,,267.24,Deoxyguanosine,C$_{10}$H$_{13}$N$_{5}$O$_{4}$
,,,,,Norethisterone,C$_{20}$H$_{26}$O$_{2}$
,,,,,PAC-1,C$_{23}$H$_{28}$N$_{4}$O$_{2}$
,,,,,Azatadine,C$_{20}$H$_{22}$N$_{2}$
-55,,127,65,276.283,Triethyl citrate,C$_{12}$H$_{20}$O$_{7}$
,,,,,Nitarsone,C$_{6}$H$_{6}$AsNO$_{5}$
,,,,307.085,Monoiodotyrosine,C$_{9}$H$_{10}$INO$_{3}$
218,6.077,,0.031,,Silver carbonate,Ag$_{2}$CO$_{3}$
153,1.341,,,90.09,Carbohydrazide,CH$_{6}$N$_{4}$O
,0.893,49-50,,,Oxetane,C$_{3}$H$_{6}$O
,,,,,Dexrazoxane,C$_{11}$H$_{16}$N$_{4}$O$_{4}$
,,,,284.26,Biochanin A,C$_{16}$H$_{12}$O$_{5}$
95-97,,,,,Cysteamine,C$_{2}$H$_{7}$NS
,,,,246.3,Plicatin B,C$_{15}$H$_{18}$O$_{3}$
,,,,,Captopril,C$_{9}$H$_{15}$NO$_{3}$S
,,,,,Clominorex,C$_{9}$H$_{9}$ClN$_{2}$O
,,,,418.33,Chromium(III) picolinate,Cr(C$_{6}$H$_{4}$NO$_{2}$)$_{3}$
176,,,,,Sulfadimidine,C$_{12}$H$_{14}$N$_{4}$O$_{2}$S
,,,,,ETH-LAD,C$_{21}$H$_{27}$N$_{3}$O
129,,,,,Tellurium tetrafluoride,TeF$_{4}$
,,139-140,,,N N-Dimethyl-1-naphthylamine,C$_{12}$H$_{13}$N
720,3.7,1500,dissolves,271.289,Holmium(III) chloride,HoCl$_{3}$
109.3-109.6,,,,,Hentriacontylic acid,C$_{31}$H$_{62}$O$_{2}$
,,,,,RO4491533,C$_{24}$H$_{20}$F$_{3}$N$_{3}$O
,,103-104,,,Rosefuran,C$_{10}$H$_{14}$O
,,,,,Propyphenazone,C$_{14}$H$_{18}$N$_{2}$O
,,,,,Cyclopropatriene,C$_{3}$
,,,,,DALT,C$_{16}$H$_{20}$N$_{2}$
,,,,,Levamisole,C$_{11}$H$_{12}$N$_{2}$S
,,,,,Emivirine,C$_{17}$H$_{22}$N$_{2}$O$_{3}$
,,,soluble,,Scandium sulfate,Sc$_{2}$(SO$_{4}$)$_{3}$
195,,,"soluble in methanol, ethanol, sodium carbonate",,Florantyrone,C$_{20}$H$_{14}$O$_{3}$
,,,,,Eperisone,C$_{17}$H$_{25}$NO
,,,,,Nitroapocynin,C$_{9}$H$_{9}$NO$_{5}$
,,,,,Repinotan,C$_{21}$H$_{24}$N$_{2}$O$_{4}$S
219-222,1.35,,Soluble in water at 25,,Imazaquin,C$_{12}$H$_{17}$NO
,,,,220.22,Eugenitin,C$_{12}$H$_{12}$O$_{4}$
,,,,,Binimetinib,C$_{17}$H$_{15}$BrF$_{2}$N$_{4}$O$_{3}$
,,,,,Macromomycin B,C$_{12}$H$_{11}$NO$_{5}$
,,,,,Motrazepam,C$_{17}$H$_{15}$N$_{3}$O$_{4}$
,,,,,Abitesartan,C$_{26}$H$_{31}$N$_{5}$O$_{3}$
,,,,,Etolorex,C$_{12}$H$_{18}$ClNO
,,,,,Nilvadipine,C$_{19}$H$_{19}$N$_{3}$O$_{6}$
160,,,,318.33476,Disperse Orange 1,C$_{18}$H$_{14}$N$_{4}$O$_{2}$
,,,soluble,,Methyl ethyl ketone peroxide,C$_{8}$H$_{18}$O$_{6}$
,,,,866.77,Procyanidin C1,C$_{45}$H$_{38}$O$_{18}$
,,,,438.6,Inogatran,C$_{21}$H$_{38}$N$_{6}$O$_{4}$
187-188,,,,189.126,Quisqualic acid,C$_{5}$H$_{7}$N$_{3}$O$_{5}$
,,,,,Spiraprilat,C$_{16}$H$_{21}$NO$_{2}$
,,,practically insoluble,,Polyethylene terephthalate,(C$_{10}$H$_{8}$O$_{4}$)$_{n}$
,,,,,Efonidipine,C$_{34}$H$_{38}$N$_{3}$O$_{7}$P
-110.5,,-43.8,hydrolysis,,Thionyl fluoride,SOF$_{2}$
,,,,,Plerixafor,C$_{28}$H$_{54}$N$_{8}$
,,,,,Medical use of nitroglycerin,
,,,,129.18,Goitrin,C$_{5}$H$_{7}$NOS
185-190,,,,494.5,Hydramethylnon,C$_{25}$H$_{24}$F$_{6}$N$_{4}$
,,,,,Asparaginase,C$_{1377}$H$_{2208}$N$_{382}$O$_{442}$S$_{17}$
140,,,,,Hydroxyethyl cellulose,variable
,,,,,Enoxaparin sodium,
,,,,,RAM-378,C$_{24}$H$_{27}$NO$_{4}$
,,,,,Pipradrol,C$_{18}$H$_{21}$NO
535,3.625,710,0.41,121.63,Strontium hydroxide,Sr(OH)$_{2}$
,1.79,,"soluble in hot water, MeOH",376.1988,Chromium(II) acetate,C$_{8}$H$_{16}$Cr$_{2}$O$_{10}$
,,,,,SER-601,C$_{28}$H$_{38}$N$_{2}$O$_{2}$
,,,,,Cabozantinib,C$_{23}$H$_{29}$N$_{3}$O$_{2}$
,,,,,Tiotropium bromide,
175-178,,,,,Coelenterazine,C$_{26}$H$_{21}$N$_{3}$O$_{3}$
,,,,,Dextrorphan,C$_{17}$H$_{23}$NO
,,,,,Nizofenone,C$_{21}$H$_{21}$ClN$_{4}$O$_{3}$
,,,,,Glutaronitrile,C$_{5}$H$_{6}$N$_{2}$
,,,,,GR-127935,C$_{29}$H$_{31}$N$_{5}$O$_{3}$
6,1.11,104.5,,,Diethyl azodicarboxylate,C$_{6}$H$_{10}$N$_{2}$O$_{4}$
,,,,,Aflibercept,C$_{4318}$H$_{6788}$N$_{1164}$O$_{1304}$S$_{32}$
,,,,,Rimexolone,C$_{24}$H$_{34}$O$_{3}$
,,,,151.58,Diisopropylzinc,C$_{6}$H$_{14}$Zn
,,,,,Midostaurin,C$_{35}$H$_{30}$N$_{4}$O$_{4}$
,,,,235.325,Methylenedioxybutylamphetamine,C$_{14}$H$_{19}$NO$_{2}$
,,,,255.376,Thioproscaline,C$_{13}$H$_{21}$NO$_{2}$S
,,,,,Californium oxychloride,CfOCl
,,,,,Streptonigrin,C$_{25}$H$_{22}$N$_{4}$O$_{8}$
,,,,,Baicalein,C$_{15}$H$_{10}$O$_{5}$
,,,,3020.29,C-peptide,C$_{129}$H$_{211}$N$_{35}$O$_{48}$
86-87,,273,,,Cedrol,C$_{15}$H$_{26}$O
197,2.7,250,164.8,,Chromium trioxide,CrO$_{3}$
,,14.5,,,Nitrosyl bromide,NOBr
,,,,342.40886,Magnoflorine,C20H24NO4+
,,595.5,,,Secologanin,C$_{17}$H$_{24}$O$_{10}$
,,,,,Rufinamide,C$_{10}$H$_{8}$F$_{2}$N$_{4}$O
,,,,,Acrivastine,C$_{22}$H$_{24}$N$_{2}$O$_{2}$
144,,,moderate,,Caffeyl alcohol,C$_{9}$H$_{10}$O$_{3}$
205,2.19,,low,224.5,Palladium(II) acetate,C$_{4}$H$_{6}$O$_{4}$Pd
,,,,,Mesalazine,C$_{7}$H$_{7}$NO$_{3}$
,,,,,Clindamycin,C$_{18}$H$_{33}$ClN$_{2}$O$_{5}$S
,,,,,Spiramide,C$_{22}$H$_{27}$FN$_{3}$O$_{2}$
5.5,1.092,220,Slightly soluble,138.16,Creosol,C$_{8}$H$_{10}$O$_{2}$
,,,,,Nelarabine,C$_{11}$H$_{15}$N$_{5}$O$_{5}$
,,,,,Teduglutide,C$_{164}$H$_{252}$N$_{44}$O$_{55}$S
,,,,,Masitinib,C$_{28}$H$_{30}$N$_{6}$OS
,,,,,Carfilzomib,C$_{26}$H$_{27}$NO$_{2}$
,,,,490.72,Cycloastragenol,C$_{30}$H$_{50}$O$_{5}$
-40,,71,immiscible,,Nitrogen trichloride,NCl$_{3}$
,,,,265.25,Tizoxanide,C$_{10}$H$_{7}$N$_{3}$O$_{4}$S
,,,,,Triptane,C$_{7}$H$_{16}$
40-42,,,,168.19,Homovanillyl alcohol,C$_{9}$H$_{12}$O$_{3}$
42-43,,125-130,Soluble,154.253,Dithiothreitol,C$_{4}$H$_{10}$O$_{2}$S$_{2}$
,,,,,Policosanol,chemical_formulaCH$_{3}$-(CH$_{2}$)$_{n}$-CH$_{2}$OHn24-34
,,,,,Idropranolol,C$_{16}$H$_{23}$NO$_{2}$
,,,,,Lymecycline,C$_{29}$H$_{38}$N$_{4}$O$_{10}$
408.6,5.778,542,0.7761,589.69,Bismuth(III) iodide,BiI$_{3}$
920,,,9.25,568.42,Cerium(III) sulfate,Ce$_{2}$(SO$_{4}$)$_{3}$
,,,,310.35196,Porphin,C$_{20}$H$_{14}$N$_{4}$
50,,347,1400,,Enilconazole,C$_{14}$H$_{14}$Cl$_{2}$N$_{2}$O
125,,,,,Indole-3-butyric acid,C$_{12}$H$_{13}$NO$_{2}$
,,,,,Cinitapride,C$_{21}$H$_{30}$N$_{4}$O$_{4}$
,,378.1,,,Canaline,C$_{4}$H$_{10}$N$_{2}$O$_{3}$
,,,,503.39,Netropsin,C$_{18}$H$_{26}$N$_{10}$O$_{3}$.2HCl
199-203,,,,,Diphenylhexatriene,C$_{18}$H$_{16}$
21,,135,,,Tetrahydro-2-furoic acid,C$_{5}$H$_{8}$O$_{3}$
,,,,,Arsenate,AsO$^{3-}_{4}$
,,,,,Eszopiclone,C$_{17}$H$_{17}$ClN$_{6}$O$_{3}$
501,5.85,950,10.8,278.1,Lead(II) chloride,PbCl$_{2}$
250,,,,267.194,Potassium picrate,C$_{6}$H$_{2}$KN$_{3}$O$_{7}$C$_{6}$H$_{2}$(NO$_{2}$)$_{3}$OK
-35.3,,36.1,,210.998,Polonium hydride,PoH$_{2}$
,,,,902.97,Gamma-Amanitin,C$_{39}$H$_{54}$N$_{10}$O$_{13}$S
,,,,,SC-17599,C$_{28}$H$_{42}$FNO$_{4}$
,,,,634.43,Punicacortein A,C$_{27}$H$_{22}$O$_{18}$
,,,,,Clomethiazole,C$_{6}$H$_{8}$ClNS
,,,,,TPA-023,C$_{20}$H$_{22}$FN$_{7}$O
,,,,273.473,Potassium nonahydridorhenate,K$_{2}$ReH$_{9}$
,,,,330,Uranyl carbonate,UO$_{2}$(CO$_{3}$)
,,,,,Alpha-Pyrrolidinobutiophenone,C$_{14}$H$_{19}$NO
,,,,,Ziconotide,C$_{102}$H$_{172}$N$_{36}$O$_{32}$S$_{7}$
,,,,,RTI-121,C$_{18}$H$_{24}$INO$_{2}$
,,,,207.137,Triacsin C,C$_{11}$H$_{17}$N$_{3}$O
,,,,,Bicuculline,C$_{20}$H$_{17}$NO$_{6}$
,,,,,Estratetraenol,C$_{18}$H$_{22}$O
,,,,302.45,Stenbolone,C$_{20}$H$_{30}$O$_{2}$
,1.277,157,,275.2,Diphenylphosphoryl azide,C$_{12}$H$_{10}$N$_{3}$O$_{3}$P
,,,,352.465,Levuglandin,C$_{20}$H$_{32}$O$_{5}$
,,,,,Rebamipide,C$_{19}$H$_{15}$ClN$_{2}$O$_{4}$
,,,,190.28,Damascenone,C$_{13}$H$_{18}$O
288,2.09,514,,,Phosphorus pentasulfide,P$_{4}$S$_{10}$
,,,,,N-Phenethyl-14-ethoxymetopon,C$_{27}$H$_{31}$NO$_{4}$
,,,,,LY-2183240,C$_{17}$H$_{17}$N$_{5}$O
,0.984,,Insoluble,,Allyl propyl disulfide,C$_{6}$H$_{12}$S$_{2}$
231,,,Slightly soluble (0.105 mg$\cdot$l$^{-1}$ at 25 $^{\circ}$C),,Levothyroxine,C$_{15}$H$_{11}$I$_{4}$NO$_{4}$
,,,,,LGD-2226,C$_{14}$H$_{9}$F$_{9}$N$_{2}$O
,315.392,,,,Flusilazole,C$_{16}$H$_{15}$F$_{2}$N$_{3}$Si
149-150,,,,,Notholaenic acid,C$_{17}$H$_{18}$O$_{5}$
-6,0.895,207,,154.25,Menthone,C$_{10}$H$_{18}$O
,,,,,Potassium methoxide,CH$_{3}$KO
,,,,288.299,Armstrong's acid,C$_{10}$H$_{8}$S$_{2}$O$_{6}$
1110,6.3,1680,,308.03,Thorium tetrafluoride,ThF$_{4}$
sublimates at ~850,1.7,,insoluble in water,,C70 fullerene,C$_{70}$
,,,,,Aluminium glycinate,
,,,,,Eugenodilol,C$_{22}$H$_{29}$NO$_{5}$
,,,,,Menatetrenone,C$_{31}$H$_{40}$O$_{2}$
,,,,,Oportuzumab monatox,
,,,,353.36,Chelidonine,C$_{20}$H$_{19}$NO$_{5}$
,,,,,Diosmin,C$_{28}$H$_{32}$O$_{15}$
,,,,,Perospirone,C$_{23}$H$_{30}$N$_{4}$O$_{2}$S
,,,,,Isotretinoin,C$_{20}$H$_{28}$O$_{2}$
,,,,,Nitrofural,C$_{6}$H$_{6}$N$_{4}$O$_{4}$
1263,3.148,2260,0.013,62.3018,Magnesium fluoride,MgF$_{2}$
-40,,255,,,Tricresyl phosphate,C$_{21}$H$_{21}$O$_{4}$P
2.9,1.23,156-157,145,,Malathion,C$_{10}$H$_{19}$O$_{6}$PS$_{2}$
,,,,,Nitrosoprodenafil,C$_{28}$H$_{38}$N$_{8}$O$_{5}$S$_{2}$
56,,,organic solvents,,Trimethylolpropane phosphite,C$_{6}$H$_{11}$O$_{3}$P
,,,,,Propizepine,C$_{17}$H$_{20}$N$_{4}$O
,,,,,Darusentan,C$_{22}$H$_{22}$N$_{2}$O$_{6}$
1100,2.02,1500,decomposes,150.158,Aluminium sulfide,Al$_{2}$S$_{3}$
,,,,319.75,Benzamil,C$_{13}$H$_{14}$ClN$_{7}$O
,,,,260.14,Fructose 6-phosphate,C$_{6}$H$_{13}$O$_{9}$P
,,,,,Dehydroemetine,C$_{29}$H$_{38}$N$_{2}$O$_{4}$
,,,,625.775,Leukotriene C4,C$_{30}$H$_{47}$N$_{3}$O$_{9}$S
>300,,,,,Naphthalenetetracarboxylic dianhydride,C$_{14}$H$_{4}$O$_{6}$
,,,,,Testosterone,C$_{19}$H$_{28}$O$_{2}$
,,,,510.812,Thallous malonate,C$_{3}$H$_{2}$O$_{4}$Tl$_{2}$
,,,,,Lorazepam,C$_{15}$H$_{10}$Cl$_{2}$N$_{2}$O$_{2}$
,,,,,U-90042,C$_{17}$H$_{13}$ClN$_{6}$O
,,,,447.46,Glucobrassicin,C$_{16}$H$_{19}$N$_{2}$O$_{9}$S$^{-}_{2}$
,,,,,Naltriben,C$_{26}$H$_{25}$NO$_{4}$
,,,,,Mitratapide,C$_{36}$H$_{41}$ClN$_{8}$O$_{4}$S
100,,350,20,,Benzotriazole,C$_{6}$H$_{5}$N$_{3}$
257-261,,,Insoluble (90.1 mg/l),,Acenaphthoquinone,C$_{12}$H$_{6}$O$_{2}$
31.6,,30,,112,Chromyl fluoride,CrO$_{2}$F$_{2}$
,,,,,Timolol,C$_{13}$H$_{24}$N$_{4}$O$_{3}$S
,,,,,Eutylone,C$_{13}$H$_{17}$NO$_{3}$
2785-2830,15.6,6000,Insoluble,,Tungsten carbide,WC
,,,,,Topiroxostat,C$_{13}$H$_{8}$N$_{6}$
,,,,,Clozapine,C$_{18}$H$_{19}$ClN$_{4}$
,,,,,Cicletanine,C$_{14}$H$_{12}$ClNO$_{2}$
-108.9,,227,,,Vinylcyclohexene dioxide,C$_{8}$H$_{12}$O$_{2}$
141-142,,,,,Ranunculin,C$_{11}$H$_{16}$O$_{8}$
,,,,262.136,TEX-explosive,C$_{6}$H$_{6}$N$_{4}$O$_{8}$
,,,,,Cytarabine,C$_{9}$H$_{13}$N$_{3}$O$_{5}$
3.3,,126-129,28,,Benthiocarb,C$_{12}$H$_{16}$ClNOS
,,,,,Furan-2-ylmethanethiol,C$_{5}$H$_{6}$SO
,0.824,112-114.7,,96.17,Cycloheptene,C$_{7}$H$_{12}$
,1.211,,,,Esfenvalerate,C$_{25}$H$_{22}$ClNO$_{3}$
,,,,,Tideglusib,C$_{19}$H$_{14}$N$_{2}$O$_{2}$S
,6.64,,insoluble,153.7588 307.5176,Antimony tetroxide,SbO$_{2}$Sb$_{2}$O$_{4}$
,,,,,Etoperidone,C$_{19}$H$_{28}$ClN$_{5}$O
,,,soluble,290.654,Vanadium(III) bromide,VBr$_{3}$
,,,,374.34,Casticin,C$_{19}$H$_{18}$O$_{8}$
,,,,,Caffeoylmalic acid,C$_{13}$H$_{12}$O$_{8}$
,,,,,Fenoprofen,C$_{15}$H$_{14}$O$_{3}$
,,,,,Medetomidine,C$_{13}$H$_{16}$N$_{2}$
1132,2.27,1950,reacts violently to form NaOH,,Sodium oxide,Na$_{2}$O
,,,,,Panadiplon,C$_{18}$H$_{17}$N$_{5}$O$_{2}$
,,,,,Norethisterone enanthate,
,,,,,Abarelix,C$_{72}$H$_{95}$ClN$_{14}$O$_{14}$
,,,,,Plutonium hydride,H$_{2}$Pu
,,,,,Gapicomine,C$_{12}$H$_{13}$N$_{3}$
47-50,1.126,280,15.9,150.177,Phenylpropanoic acid,C$_{9}$H$_{10}$O$_{2}$
1100,2.9,,,41.7855,Boron phosphide,BP
6,1.07,270,Soluble,,Triton X-100,C14H22O(C2H4O)$_{n}$(n$^{9-}$10)
293,,,,,Homotaurine,C$_{3}$H$_{9}$NO$_{3}$S