Name,formula,Property Molar Mass,Property Molar Mass units,Property Melting Point,Property Melting Point units,Property Density,Property Density units,Property Boiling Point,Property Boiling Point units,Property Solubility
Succinic semialdehyde,C$_{4}$H$_{6}$O$_{3}$,102.089,g/mol,,,,,135,$^{\circ}$C,"soluble in water, ethanol, benzene, diethyl ether"
Piretanide,C$_{17}$H$_{18}$N$_{2}$O$_{5}$S,,,,,,,,,
Moxaverine,C$_{20}$H$_{21}$NO$_{2}$,,,,,,,,,
GYKI-52895,C$_{17}$H$_{17}$N$_{3}$O$_{2}$,,,,,,,,,
Sodium lactate,C$_{3}$H$_{5}$NaO$_{3}$,112.06,g/mol,161-162,$^{\circ}$C,,,113,$^{\circ}$C,> 1.5
Medazepam,C$_{16}$H$_{15}$ClN$_{2}$,,,,,,,,,
Ropivacaine,C$_{17}$H$_{26}$N$_{2}$O,,,,,,,,,
Isatin,C$_{8}$H$_{5}$NO$_{2}$,147.1308,g/mol,200,$^{\circ}$C,,,,,
Bremelanotide,C$_{29}$H$_{41}$NO$_{4}$,,,,,,,,,
Hexafluorotitanic acid,H$_{2}$TiF$_{6}$,,,,,,,,,
Catalpol,C$_{15}$H$_{22}$O$_{10}$,,,,,,,,,
Diethyl sulfite,C$_{4}$H$_{10}$O$_{3}$S,,,,,1.88,g/cm$^{3}$,158-160,$^{\circ}$C,
Azanidazole,C$_{10}$H$_{10}$N$_{6}$O$_{2}$,,,,,,,,,
AM-2233,C$_{22}$H$_{23}$IN$_{2}$O,,,,,,,,,
Litracen,C$_{20}$H$_{23}$N,,,,,,,,,
Niobium pentaiodide,Nb$_{2}$I$_{10}$,,,sublimes 543,$^{\circ}$C,5.30,g/cm$^{3}$,,,
Meticrane,chemical_formulaC10H13NO4S2,,,,,,,,,
Oxetacaine,C$_{28}$H$_{41}$N$_{3}$O$_{3}$,,,,,,,,,
Porphobilinogen,C$_{10}$H$_{14}$N$_{2}$O$_{4}$,,,,,,,,,
Barium chloride,BaCl$_{2}$,208.23,g/mol,962,$^{\circ}$C,3.856,g/cm$^{3}$,1560,$^{\circ}$C,31.2
Tantalum pentoxide,Ta$_{2}$O$_{5}$,441.893,g/mol,1872,$^{\circ}$C,,,,,negligible
Edrophonium,C10H16NO1charge+,,,,,,,,,
Methacrylamide,C$_{4}$H$_{7}$NO,,,106,$^{\circ}$C,1.10-1.12,g/cm$^{3}$,215,$^{\circ}$C,202
AI-10-49,C$_{30}$H$_{22}$F$_{6}$N$_{6}$O$_{5}$,,,,,,,,,
Nickel(II) nitrate,Ni(NO$_{3}$)$_{2}$,182.703,g/mol,56.7,$^{\circ}$C,2.05,g/cm$^{3}$,136.7,$^{\circ}$C,243
Shamixanthone,C$_{25}$H$_{26}$O$_{5}$,,,,,,,,,
Dofetilide,C$_{19}$H$_{27}$N$_{3}$O$_{5}$S$_{2}$,,,,,,,,,
Isopropyl acetate,C$_{5}$H$_{10}$O$_{2}$,,,-73,$^{\circ}$C,0.87,g/cm$^{3}$,89,$^{\circ}$C,4.3
Propargyl alcohol,C$_{3}$H$_{4}$O,,,-51,$^{\circ}$C,0.9715,g/cm$^{3}$,114,$^{\circ}$C,miscible
Ethyl azide,C$_{2}$H$_{5}$N$_{3}$,,,,,,,,,
Benzil,C$_{14}$H$_{10}$O$_{2}$,,,,,,,,,soluble
Propylene carbonate,C$_{4}$H$_{6}$O$_{3}$,,,-48.8,$^{\circ}$C,1.205,g/cm$^{3}$,242,$^{\circ}$C,Very soluble
Bemegride,C$_{8}$H$_{13}$NO$_{2}$,,,127,$^{\circ}$C,,,,,
Tetrathiafulvalene,C$_{6}$H$_{4}$S$_{4}$,204.36,g/mol,116-119,$^{\circ}$C,,,,,
Trifluoroacetic anhydride,C$_{4}$F$_{6}$O$_{3}$,,,-65,$^{\circ}$C,,,40,$^{\circ}$C,
Cyclopropylmescaline,C$_{14}$H$_{21}$NO$_{3}$,251.33,g/mol,,,,,,,
Rivanicline,C$_{10}$H$_{14}$N$_{2}$,,,,,,,,,
Hydantoin,C$_{3}$H$_{4}$N$_{2}$O$_{2}$,,,220,$^{\circ}$C,,,,,39.7
Cytosine,C$_{4}$H$_{5}$N$_{3}$O,111.10,g/mol,320,$^{\circ}$C,1.55,g/cm$^{3}$,,,
Gabazine,C$_{15}$H$_{18}$BrN$_{3}$O$_{3}$,,,,,,,,,
Carbon monoxide,CO,28.010,g/mol,-205.02,$^{\circ}$C,,,-191.5,$^{\circ}$C,27.6
Calcium citrate,Ca$_{3}$(C$_{6}$H$_{5}$O$_{7}$)$_{2}$,498.4334,g/mol,120,$^{\circ}$C,,,,,0.085
Aplaviroc,C$_{33}$H$_{43}$N$_{3}$O$_{6}$,,,,,,,,,
HOT-7,C$_{13}$H$_{21}$NO$_{3}$S,271.374,g/mol,,,,,,,
Ammonium bisulfate,(NH$_{4}$)HSO$_{4}$,115.11,g/mol,147,$^{\circ}$C,1.78,g/cm$^{3}$,,,Very soluble
Fluoroamine,NH$_{2}$F,35.021,g/mol,,,,,,,
Sodium fluoride,NaF,41.988173,g/mol,993,$^{\circ}$C,2.558,g/cm$^{3}$,1704,$^{\circ}$C,
Carbon diselenide,CSe$_{2}$,169.93,g/mol,-43.7,$^{\circ}$C,,,125.5,$^{\circ}$C,0.054
S-Adenosyl-L-homocysteine,C$_{14}$H$_{20}$N$_{6}$O$_{5}$S,,,,,,,,,
Castanospermine,C$_{8}$H$_{15}$NO$_{4}$,189.209,g/mol,212-215,$^{\circ}$C,,,,,Soluble
Metopimazine,C$_{22}$H$_{27}$N$_{3}$O$_{3}$S$_{2}$,,,,,,,,,
Besonprodil,C$_{21}$H$_{23}$FN$_{2}$O$_{3}$S,,,,,,,,,
Cadmium sulfate,CdSO$_{4}$,208.47,g/mol,1000,$^{\circ}$C,4.691,g/cm$^{3}$,,,anhydrous:   75
Tofacitinib,C$_{16}$H$_{20}$N$_{6}$O,,,,,,,,,
Hexafluoropropylene,C$_{3}$F$_{6}$,,,-153,$^{\circ}$C,,,-28,$^{\circ}$C,Insoluble
Zinc molybdate,ZnMoO$_{4}$,225.33,g/mol,900,$^{\circ}$C,,,,,insoluble
Elenolic acid,C$_{11}$H$_{14}$O$_{6}$,,,,,,,408.9,$^{\circ}$C,
Zolazepam,C$_{15}$H$_{15}$FN$_{4}$O,,,,,,,,,
Cefamandole,C$_{18}$H$_{18}$N$_{6}$O$_{5}$S$_{2}$,,,,,,,,,
Nupharin A,C$_{41}$H$_{30}$O$_{26}$,938.66,g/mol,,,,,,,
Ethyl lactate,C$_{5}$H$_{10}$O$_{3}$,,,-26,$^{\circ}$C,1.03,g/cm$^{3}$,151,$^{\circ}$C,
Lamotrigine,C$_{9}$H$_{7}$Cl$_{2}$N$_{5}$,,,,,,,,,
Calcipotriol,C$_{27}$H$_{40}$O$_{3}$,,,,,,,,,
Barakol,C$_{13}$H$_{12}$O$_{4}$,,,,,,,,,
Tigemonam,C$_{12}$H$_{15}$N$_{5}$O$_{9}$S$_{2}$,,,,,,,,,
Vanadium hexacarbonyl,C$_{6}$O$_{6}$V,219.00,g/mol,,,1.7,g/cm$^{3}$,50,$^{\circ}$C,
Lipstatin,C$_{29}$H$_{49}$NO$_{5}$,491.703,g/mol,,,,,,,
Octanitrocubane,C$_{8}$N$_{8}$O$_{16}$,464.13,g/mol,,,1.98,g/cm$^{3}$,,,
Ferruginol,C$_{20}$H$_{30}$O,286.45,g/mol,,,,,,,
Famprofazone,C$_{24}$H$_{31}$N$_{3}$O,,,,,,,,,
Vapreotide,C$_{57}$H$_{70}$N$_{12}$O$_{9}$S$_{2}$,,,,,,,,,
Estrane,C$_{18}$H$_{30}$,,,,,,,,,
Cinnamyl alcohol,C$_{9}$H$_{10}$O,134.17,g/mol,33,$^{\circ}$C,,,250,$^{\circ}$C,
Samarium(II) iodide,SmI$_{2}$,404.16,g/mol,520,$^{\circ}$C,,,,,
Metrizoic acid,,,,,,,,,,
Moclobemide,C$_{13}$H$_{17}$ClN$_{2}$O$_{2}$,,,,,,,,,
Plutonium(III) fluoride,F$_{3}$Pu,,,1396,$^{\circ}$C,,,2000,$^{\circ}$C,
Trimetazidine,C$_{14}$H$_{22}$N$_{2}$O$_{3}$,,,,,,,,,
Minoxidil,C$_{9}$H$_{15}$N$_{5}$O,,,,,,,,,
Mepivacaine,C$_{15}$H$_{22}$N$_{2}$O,,,,,,,,,
Granisetron,C$_{18}$H$_{24}$N$_{4}$O,,,,,,,,,
Thenyldiamine,C$_{14}$H$_{19}$N$_{3}$S,,,,,,,,,
Aluminium clofibrate,,,,,,,,,,
Cobalt(II) phosphide,Co$_{2}$P,148.84,g/mol,1386,$^{\circ}$C,6.4,g/cm$^{3}$,,,insoluble
Allyl methyl sulfide,C$_{4}$H$_{8}$S,,,,,,,,,
AMG-41,C$_{25}$H$_{36}$O$_{2}$,,,,,,,,,
Filgrastim,C$_{845}$H$_{1343}$N$_{223}$O$_{243}$S$_{9}$,,,,,,,,,
Dimethyl oxalate,C$_{4}$H$_{6}$O$_{4}$,,,53-55,$^{\circ}$C,,,,,
Mirfentanil,C$_{22}$H$_{24}$N$_{4}$O$_{2}$,376.45156,g/mol,,,,,,,
Cefprozil,C$_{18}$H$_{19}$N$_{3}$O$_{5}$S,,,,,,,,,
Fluorodopa,C$_{9}$H$_{10}$FNO$_{4}$,,,,,,,,,
Lisuride,C$_{20}$H$_{26}$N$_{4}$O,,,,,,,,,
Diphlorethol,C$_{12}$H$_{10}$O$_{6}$,250.20,g/mol,,,,,,,
AM-087,C$_{23}$H$_{33}$BrO$_{2}$,,,,,,,,,
Brilliant Green (dye),C$_{27}$H$_{33}$N$_{2}$.HO$_{4}$S,482.64,g/mol,210,$^{\circ}$C,,,,,100
NEFA (drug),,,,,,,,,,
Dieckol,C$_{36}$H$_{22}$O$_{18}$,742.52,g/mol,,,,,,,
Preladenant,C$_{25}$H$_{29}$N$_{9}$O$_{3}$,,,,,,,,,
Victoria blue BO,C$_{33}$H$_{40}$N$_{3}$Cl(chloride),,,,,,,,,
O-1812,C$_{26}$H$_{42}$N$_{2}$O$_{2}$,,,,,,,,,
Cyclobutane,C$_{4}$H$_{8}$,56.107,g/mol,-91,$^{\circ}$C,0.720,g/cm$^{3}$,12.5,$^{\circ}$C,
Mercury(II) chloride,HgCl$_{2}$,271.52,g/mol,276,$^{\circ}$C,5.43,g/cm$^{3}$,304,$^{\circ}$C,3.6
Nitroacetanilide,C$_{8}$H$_{8}$N$_{2}$O$_{3}$,180.16,g/mol,215,$^{\circ}$C,,,408.9,$^{\circ}$C,
Momordol,C$_{26}$H$_{48}$O$_{5}$,,,,,,,,,
Cilengitide,C$_{27}$H$_{40}$N$_{8}$O$_{7}$,588.656,g/mol,,,,,,,
Tetramethyl orthosilicate,SiC$_{4}$H$_{12}$O$_{4}$,,,4-5,$^{\circ}$C,,,121-122,$^{\circ}$C,organic solvents
JWH-307,C$_{26}$H$_{24}$FNO,,,,,,,,,
Ethyl nitrite,C$_{2}$H$_{5}$NO$_{2}$,,,,,,,17,$^{\circ}$C,
Phosphate,PO$^{3-}_{4}$,,,,,,,,,
Fosfestrol,C$_{18}$H$_{22}$O$_{8}$P$_{2}$,,,,,,,,,
Bis-choline tetrathiomolybdate,,,,,,,,,,
Dioxygenyl hexafluoroplatinate,F$_{6}$O$_{2}$Pt,,,,,,,,,
Ditophal,C$_{12}$H$_{14}$O$_{2}$S$_{2}$,,,,,,,,,
Stibine,SbH$_{3}$,124.784,g/mol,-88,$^{\circ}$C,,,-17,$^{\circ}$C,
Amyl nitrate,C$_{5}$H$_{11}$NO$_{3}$,,,,,,,104,$^{\circ}$C,
Pentazole,N$_{5}$H,71.0414,g/mol,,,,,,,
Difenacoum,C$_{31}$H$_{24}$O$_{3}$,444.52,g/mol,211.0-215.0,$^{\circ}$C,,,,,
PNU-282 987,,,,,,,,,,
Pergolide,C$_{19}$H$_{26}$N$_{2}$S,,,,,,,,,
Thiomorpholine,C$_{4}$H$_{9}$NS,,,61.29,$^{\circ}$C,,,166.87,$^{\circ}$C,
Valnoctamide,C$_{8}$H$_{17}$NO,,,,,,,,,
P-Menthane-3 8-diol,C$_{10}$H$_{20}$O$_{2}$,,,,,1.009,g/cm$^{3}$,,,
Capecitabine,C$_{15}$H$_{22}$FN$_{3}$O$_{6}$,,,,,,,,,
EGLU,C$_{7}$H$_{13}$NO$_{4}$,,,,,,,,,
Oxibendazole,C$_{12}$H$_{15}$N$_{3}$O$_{3}$,,,,,,,,,
Cyclopenthiazide,C$_{13}$H$_{18}$ClN$_{3}$O$_{4}$S$_{2}$,,,,,,,,,
Dihydroergocristine,C$_{35}$H$_{41}$N$_{5}$O$_{5}$,611.73,g/mol,,,,,,,
Tetrandrine,C$_{38}$H$_{42}$N$_{2}$O$_{6}$,,,,,,,,,
SS220,C$_{13}$H$_{21}$NO,,,,,,,,,
Dianicline,C$_{13}$H$_{16}$N$_{2}$O,,,,,,,,,
DMCM,C$_{17}$H$_{18}$N$_{2}$O$_{4}$,314.336,g/mol,,,,,87,$^{\circ}$C,
Cyhalothrin,C$_{23}$H$_{19}$ClF$_{3}$NO$_{3}$,449.850,g/mol,49.2,$^{\circ}$C,,,498.9,$^{\circ}$C,"Very soluble in xylene. Soluble in ethyl acetate, diethyl eter, cyclohexane, methanol. Insoluble in water (0.005 mg/l [20 $^{\circ}$C])."
Nylon 66,(C$_{12}$H$_{22}$N$_{2}$O$_{2}$)$_{n}$,,,,,,,,,
Cobimetinib,C$_{21}$H$_{21}$F$_{3}$IN$_{3}$O$_{2}$,,,,,,,,,
Bromacil,C$_{9}$H$_{13}$BrN$_{2}$O$_{2}$,,,,,1.46,g/cm$^{3}$,,,0.08%  (25$^{\circ}$C)
Daunosamine,C$_{6}$H$_{13}$NO$_{3}$,147.17,g/mol,,,,,,,
Phenanthrene,C$_{14}$H$_{10}$,,,101,$^{\circ}$C,1.18,g/cm$^{3}$,332,$^{\circ}$C,1.6
Methdilazine,C$_{18}$H$_{20}$N$_{2}$S,,,,,,,,,
AZ-11713908,C$_{27}$H$_{32}$N$_{4}$O$_{3}$S$_{2}$,,,,,,,,,
Tetraethyltin,C$_{8}$H$_{20}$Sn,,,-112,$^{\circ}$C,,,181,$^{\circ}$C,
JWH-048,C$_{26}$H$_{27}$NO,,,,,,,,,
Niobium(IV) fluoride,NbF$_{4}$,168.9,g/mol,350,$^{\circ}$C,,,,,
Anileridine,C$_{22}$H$_{28}$N$_{2}$O$_{2}$,,,,,,,,,
Tinzaparin sodium,C$_{8}$H$_{9}$NO$_{2}$,,,,,,,,,
Butyltin trichloride,C$_{4}$H$_{9}$SnCl$_{3}$,,,-63,$^{\circ}$C,1.693,g/cm$^{3}$,93,$^{\circ}$C,
Remikiren,C$_{33}$H$_{50}$N$_{4}$O$_{6}$S,,,,,,,,,
Gadoteridol,C$_{17}$H$_{29}$GdN$_{4}$O$_{7}$,,,,,,,,,
Befunolol,C$_{16}$H$_{21}$NO$_{4}$,,,,,,,,,
Vernolic acid,C$_{18}$H$_{32}$O$_{3}$,,,23-25,$^{\circ}$C,,,,,
Perfosfamide,C$_{7}$H$_{15}$Cl$_{2}$N$_{2}$O$_{4}$P,,,,,,,,,
Lunularin,C$_{14}$H$_{14}$O$_{2}$,214.26,g/mol,,,,,,,
Tositumomab,C$_{6416}$H$_{9874}$N$_{1688}$O$_{1987}$S$_{44}$,,,,,,,,,
Matairesinol,C$_{20}$H$_{22}$O$_{6}$,,,,,,,,,
Thiocarbanilide,C$_{13}$H$_{12}$N$_{2}$S,228.312,g/mol,154.5,$^{\circ}$C,1.32,g/cm$^{3}$,,,slightly soluble in water
Salmeterol,C$_{25}$H$_{37}$NO$_{4}$,,,,,,,,,
Cardanolide,C$_{23}$H$_{36}$O$_{2}$,,,,,,,,,
Pimethixene,C$_{19}$H$_{19}$NS,,,,,,,,,
Triphenylphosphine selenide,C$_{18}$H$_{15}$PSe,,,,,,,,,insoluble
Linolelaidic acid,C$_{18}$H$_{32}$O$_{2}$,280.45,g/mol,-5,$^{\circ}$C,,,229-230,$^{\circ}$C,
Bretazenil,C$_{19}$H$_{20}$BrN$_{3}$O$_{3}$,,,,,,,,,
Chlorisondamine,C$_{14}$H$_{20}$Cl$_{6}$N$_{2}$,,,,,,,,,
Tetracycline,C$_{22}$H$_{24}$N$_{2}$O$_{8}$,,,,,,,,,
Nitrotyrosine,C$_{9}$H$_{10}$N$_{2}$O$_{5}$,226.19,g/mol,233-235,$^{\circ}$C,,,,,
Isovaleryl-CoA,C$_{26}$H$_{44}$N$_{7}$O$_{17}$P$_{3}$S,851.652,g/mol,,,,,,,
Carbethopendecinium bromide,C$_{21}$H$_{44}$BrNO$_{2}$,422.48,g/mol,,,,,,,
Silver(I III) oxide,AgO,123.87,g/mol,,,7.48,g/cm$^{3}$,,,.0027
Sunitinib,C$_{22}$H$_{27}$FN$_{4}$O$_{2}$,,,,,,,,,
Isocarboxazid,C$_{12}$H$_{13}$N$_{3}$O$_{2}$,,,,,,,,,
AMPT,C$_{10}$H$_{13}$NO$_{3}$,,,,,,,,,
Gamfexine,C$_{17}$H$_{27}$N,,,,,,,,,
Levopropoxyphene,BiH$_{3}$,,,,,,,,,
Zineb,C$_{4}$H$_{6}$N$_{2}$S$_{4}$Zn,275.8,g/mol,,,,,,,
M-Toluic acid,C$_{8}$H$_{8}$O$_{2}$,136.15,g/mol,111-113,$^{\circ}$C,,,263,$^{\circ}$C,
Esreboxetine,C$_{19}$H$_{23}$NO$_{3}$,,,,,,,,,
Cyclobutadieneiron tricarbonyl,(C$_{4}$H$_{4}$)Fe(CO)$_{3}$,,,,,,,,,
Alpinetin,C$_{16}$H$_{14}$O$_{4}$,,,,,,,,,
Isoemericellin,C$_{25}$H$_{28}$O$_{5}$,,,,,,,,,
CBS-0550,C$_{20}$H$_{23}$F$_{4}$N$_{3}$O,,,,,,,,,
Caesium chloride,CsCl,168.36,g/mol,645,$^{\circ}$C,3.988,g/cm$^{3}$,1297,$^{\circ}$C,162
Lithium metaborate,LiBO$_{2}$,49.751,g/mol,849,$^{\circ}$C,2.223,g/cm$^{3}$,,,0.89
Sodium dithionite,Na$_{2}$S$_{2}$O$_{4}$,174.107,g/mol,52,$^{\circ}$C,2.38,g/cm$^{3}$,,,18.2
Norlevorphanol,C$_{16}$H$_{21}$NO,,,,,,,,,
Phosphomevalonic acid,C$_{6}$H$_{13}$O$_{7}$P,228.137,g/mol,,,,,,,
Itraconazole,C$_{35}$H$_{38}$Cl$_{2}$N$_{8}$O$_{4}$,,,,,,,,,
Raltitrexed,C$_{21}$H$_{22}$N$_{4}$O$_{6}$S,,,,,,,,,
Ciladopa,C$_{21}$H$_{26}$N$_{2}$O$_{4}$,,,,,,,,,
Umifenovir,C$_{22}$H$_{28}$BrClN$_{2}$O$_{4}$S,,,,,,,,,
Flomoxef,C$_{15}$H$_{18}$F$_{2}$N$_{6}$O$_{7}$S$_{2}$,,,,,,,,,
Thionyl bromide,SOBr$_{2}$,207.87,g/mol,-52,$^{\circ}$C,,,68,$^{\circ}$C,decomposes
Calcitroic acid,C$_{23}$H$_{34}$O$_{4}$,,,,,,,,,
Devazepide,C$_{25}$H$_{20}$N$_{4}$O$_{2}$,,,,,,,,,
Polyaspartic acid,(C$_{4}$H$_{5}$NO$_{3}$)$_{n}$,,,,,,,,,
Ethylparaben,C$_{9}$H$_{10}$O$_{3}$,,,115-118,$^{\circ}$C,,,297-298,$^{\circ}$C,
Aluminium nicotinate,,,,,,,,,,
Isoorientin,C$_{21}$H$_{20}$O$_{11}$,448.38,g/mol,,,,,,,
Trepibutone,C$_{16}$H$_{22}$O$_{6}$,,,,,,,,,
Bromopentaamminecobalt(III) bromide,(Co(NH$_{3}$)$_{5}$Br)Br$_{2}$,383.798,g/mol,,,,,,,
Sulfur trioxide,SO$_{3}$,80.066,g/mol,16.9,$^{\circ}$C,,,45,$^{\circ}$C,Reacts to give sulfuric acid
Miglustat,C$_{10}$H$_{21}$NO$_{4}$,,,,,,,,,
LJ-001,C$_{17}$H$_{13}$NO$_{2}$S$_{2}$,,,,,,,,,
Pinacol,C$_{6}$H$_{14}$O$_{2}$,118.174,g/mol,40-43,$^{\circ}$C,0.967,g/cm$^{3}$,171-173,$^{\circ}$C,
Zofenopril,C$_{22}$H$_{23}$NO$_{4}$S$_{2}$,,,,,,,,,
Bendiocarb,C$_{11}$H$_{13}$NO$_{4}$,223.23,g/mol,,,,,,,
Amosulalol,C$_{18}$H$_{24}$N$_{2}$O$_{5}$S,,,,,,,,,
Croconic acid,C$_{5}$H$_{2}$O$_{5}$,,,,,,,,,
Clometocillin,C$_{17}$H$_{18}$Cl$_{2}$N$_{2}$O$_{5}$S,,,,,,,,,
Aspartame-acesulfame salt,C$_{18}$H$_{23}$O$_{9}$N$_{3}$S,,,,,,,,,
Potassium hexafluorophosphate,F$_{6}$KP,184.0625,g/mol,575,$^{\circ}$C,2.75,g/cm$^{3}$,,,8.35g/100mL (25 $^{\circ}$C)
Bromsulphthalein,C$_{20}$H$_{8}$O$_{10}$Br$_{4}$S$_{2}$Na$_{2}$,838.00,g/mol,,,,,,,
MMDA-2,C$_{11}$H$_{15}$NO$_{3}$,,,,,,,,,
Terbequinil,C$_{15}$H$_{18}$N$_{2}$O$_{3}$,,,,,,,,,
Tungsten trioxide,WO$_{3}$,231.84,g/mol,1473,$^{\circ}$C,7.16,g/cm$^{3}$,1700,$^{\circ}$C,insoluble
Dehydroalanine,C$_{3}$H$_{5}$NO$_{2}$,87.08,g/mol,,,,,251.2,$^{\circ}$C,
Org 27569,,,,,,,,,,
Tetraethylammonium bromide,C$_{8}$H$_{20}$NBr,210.16,g/mol,286,$^{\circ}$C,1.4,g/cm$^{3}$,,,Soluble
Cloprednol,C$_{21}$H$_{25}$ClO$_{5}$,,,,,,,,,
Ro10-5824,C$_{17}$H$_{20}$N$_{4}$,,,,,,,,,
PolyDADMAC,(C$_{8}$H$_{16}$NCl)$_{n}$,,,,,,,,,soluble
Sodium azide,NaN$_{3}$,65.0099,g/mol,275,$^{\circ}$C,1.846,g/cm$^{3}$,,,0.22
Pratensein,C$_{16}$H$_{12}$O$_{6}$,300.26,g/mol,,,,,,,
Hexyl cinnamaldehyde,C$_{15}$H$_{20}$O,,,,,,,308,$^{\circ}$C,2.75
Hexachlorocyclohexa-2 5-dien-1-one,C$_{6}$Cl$_{6}$O,,,113,$^{\circ}$C,,,,,
Diazepam,C$_{16}$H$_{13}$ClN$_{2}$O,,,,,,,,,
T-HCA,C$_{4}$H$_{6}$O$_{3}$,,,,,,,,,
Altinicline,C$_{12}$H$_{14}$N$_{2}$,,,,,,,,,
Pentachlorobenzene,C$_{6}$HCl$_{5}$,,,86,$^{\circ}$C,1.8,g/cm$^{3}$,275-277,$^{\circ}$C,0.68
Arboreol,C$_{20}$H$_{18}$O$_{8}$,386.35,g/mol,,,,,,,
Pipamperone,C$_{21}$H$_{30}$FN$_{3}$O$_{2}$,,,,,,,,,
Quinoxaline,C$_{8}$H$_{6}$N$_{2}$,,,29-32,$^{\circ}$C,,,220-223,$^{\circ}$C,
DOTA (chelator),C$_{16}$H$_{28}$N$_{4}$O$_{8}$,,,,,,,,,
Trenbolone,C$_{18}$H$_{22}$O$_{2}$,,,,,,,,,
Hexafluoropropylene oxide,C$_{3}$F$_{6}$O,166.02,g/mol,,,,,,,nonpolar solvents
Sodium pyruvate,C$_{3}$H$_{3}$NaO$_{3}$,110.044,g/mol,,,,,,,
Coronaridine,C$_{21}$H$_{26}$N$_{2}$O$_{2}$,,,,,,,,,
Mononitrogen monosulfide,NS,,,,,,,,,
Tin(II) chloride (data page),C$_{8}$H$_{6}$BrClNO$_{4}$P,,,,,,,,,
Norpropylhexedrine,C$_{9}$H$_{19}$N,,,,,,,,,
NovaMin,CaNaO$_{6}$PSi,,,,,,,,,
Methyl salicylate,C$_{8}$H$_{8}$O$_{3}$,,,-8.6,$^{\circ}$C,1.174,g/cm$^{3}$,222,$^{\circ}$C,0.639
Beta-Pinene,C$_{10}$H$_{16}$,,,,,,,,,
AB-FUBINACA,C$_{20}$H$_{21}$FN$_{4}$O$_{2}$,,,,,,,,,
Polybutylene succinate,(C$_{8}$H$_{12}$O$_{4}$)$_{n}$,,,115,$^{\circ}$C,1.26,g/cm$^{3}$,,,Insoluble
JWH-047,C$_{25}$H$_{25}$NO,,,,,,,,,
Atovaquone,C$_{22}$H$_{19}$ClO$_{3}$,,,,,,,,,
Calcium benzoate,Ca(C$_{7}$H$_{5}$O$_{2}$)$_{2}$,282.31,g/mol,,,,,,,2.32
Uranium carbide,UC,250.04,g/mol,2350,$^{\circ}$C,13.63,g/cm$^{3}$,,,
Ablukast,C$_{28}$H$_{34}$O$_{8}$,,,,,,,,,
Dextrothyroxine,C$_{15}$H$_{11}$I$_{4}$NO$_{4}$,,,,,,,,,
Sabeluzole,C$_{22}$H$_{26}$FN$_{3}$O$_{2}$S,,,,,,,,,
Bufotalin,C$_{26}$H$_{36}$O$_{6}$,,,,,,,,,
Pyrithyldione,C$_{9}$H$_{13}$NO$_{2}$,,,,,,,,,
Cefixime,C$_{16}$H$_{15}$N$_{5}$O$_{7}$S$_{2}$,,,,,,,,,
WB-4101,C$_{19}$H$_{23}$NO$_{5}$,,,,,,,,,
Alinidine,C$_{12}$H$_{13}$Cl$_{2}$N$_{3}$,,,,,,,,,
Dodecyl gallate,C$_{19}$H$_{30}$O$_{5}$,338.44,g/mol,,,,,,,
Mifamurtide,C$_{59}$H$_{109}$N$_{6}$O$_{19}$P,,,,,,,,,
Phosgene oxime,CHNOCl$_{2}$,,,35-40,$^{\circ}$C,,,128,$^{\circ}$C,70%
Tetrabutylammonium hexafluorophosphate,C$_{16}$H$_{36}$F$_{6}$NP,,,244-246,$^{\circ}$C,,,,,
Adalimumab biosimilar,,,,,,,,,,
Chloroprocaine,C$_{13}$H$_{19}$ClN$_{2}$O$_{2}$,,,,,,,,,
Guanosine monophosphate,C$_{10}$H$_{14}$N$_{5}$O$_{8}$P,363.22,g/mol,,,,,,,
Peonidin,C$_{16}$H$_{13}$O$^{+}_{6}$,301.27,g/mol,,,,,,,
Melanotan II,C$_{50}$H$_{69}$N$_{15}$O$_{9}$,,,,,,,,,
Diethylmercury,C$_{4}$H$_{10}$Hg,258.71,g/mol,-45,$^{\circ}$C,,,156-157,$^{\circ}$C,Insoluble
Caffeine,C$_{8}$H$_{10}$N$_{4}$O$_{2}$,,,,,,,,,
Caesium acetate,C$_{2}$H$_{3}$O$_{2}$Cs,191.949,g/mol,194,$^{\circ}$C,,,945,$^{\circ}$C,945.1
Phanephos,C$_{40}$H$_{34}$P$_{2}$,,,222-225,$^{\circ}$C,,,,,
Perfluorooctanesulfonamide,C$_{8}$H$_{2}$F$_{17}$NO$_{2}$S,499.14,g/mol,,,,,,,
Santonin,C$_{15}$H$_{18}$O$_{3}$,,,172,$^{\circ}$C,,,423,$^{\circ}$C,insoluble
Copper(II) hydroxide,Cu(OH)$_{2}$,97.561,g/mol,80,$^{\circ}$C,,,,,negligible
Sunifiram,C$_{14}$H$_{18}$N$_{2}$O$_{2}$,,,,,,,,,
Hafnium acetylacetonate,C$_{20}$H$_{28}$HfO$_{8}$,,,193,$^{\circ}$C,1.42,g/cm$^{3}$,82,$^{\circ}$C,
Cyclizine,C$_{18}$H$_{22}$N$_{2}$,,,,,,,,,
RTA 408,,,,,,,,,,
Polylysine,(C$_{6}$H$_{12}$N$_{2}$O)$_{n}$,,,142.2,$^{\circ}$C,,,,,Soluble
Beta-Hydroxybutyryl-CoA,C$_{25}$H$_{42}$N$_{7}$O$_{18}$P$_{3}$S,853.625,g/mol,,,,,,,
Poly(dichlorophosphazene),(PNCl$_{2}$)$_{n}$,,,,,,,,,
Pyrantel,C$_{11}$H$_{14}$N$_{2}$S,206.31,g/mol,,,,,,,
Silver nitrite,AgNO$_{2}$,153.87,g/mol,140,$^{\circ}$C,,,,,0.155
Ubiquinol,C$_{59}$H$_{92}$O$_{4}$,,,45.6,$^{\circ}$C,,,,,practically insoluble in water
Gmelanone,C$_{20}$H$_{16}$O$_{7}$,,,,,,,,,
Thymidine monophosphate,C$_{10}$H$_{13}$N$_{2}$O$_{8}$P$^{1-}$,,,,,,,,,
Bilobalide,C$_{15}$H$_{18}$O$_{8}$,,,,,,,,,
N-Octyl $\beta$-D-thioglucopyranoside,C$_{14}$H$_{28}$O$_{5}$S,308.434,g/mol,125-131,$^{\circ}$C,,,,,
Beryllium sulfite,BeSO$_{3}$,89.075,g/mol,,,,,,,
Gallium(III) bromide,GaBr$_{3}$,309.435,g/mol,121.5,$^{\circ}$C,3.69,g/cm$^{3}$,278.8,$^{\circ}$C,soluble
Nicotianamine,C$_{12}$H$_{21}$N$_{3}$O$_{6}$,303.31164,g/mol,,,,,,,
SKF-77 434,,,,,,,,,,
Methoxypropane,C$_{4}$H$_{10}$O,,,,,0.7356,g/cm$^{3}$,38.8,$^{\circ}$C,30.5
Decitabine,C$_{8}$H$_{12}$N$_{4}$O$_{4}$,,,,,,,,,
Peroxybenzoic acid,C$_{7}$H$_{6}$O$_{3}$,138.12,g/mol,41-42,$^{\circ}$C,,,,,
Pamaquine,C$_{19}$H$_{29}$N$_{3}$O,,,,,,,,,
Tellurium iodide,TeI,,,,,,,,,
Benzophenone,C$_{13}$H$_{10}$O,,,,,,,,,
Zinc pyrithione,C$_{10}$H$_{8}$N$_{2}$O$_{2}$S$_{2}$Zn,317.70,g/mol,240,$^{\circ}$C,,,,,8
DCG-IV,C$_{7}$H$_{9}$NO$_{6}$,,,,,,,,,
Phenazocine,C$_{22}$H$_{27}$NO,,,,,,,,,
Limonin,C$_{26}$H$_{30}$O$_{8}$,470.52,g/mol,,,,,,,
Hexahydroxybenzene triscarbonate,C$_{9}$O$_{9}$,252.09,g/mol,,,,,,,
Aluminium selenide,Al$_{2}$Se$_{3}$,290.84,g/mol,947,$^{\circ}$C,3.437,g/cm$^{3}$,,,decomposes
Arsine,AsH$_{3}$,77.9454,g/mol,-111.2,$^{\circ}$C,,,-62.5,$^{\circ}$C,0.07
Lithium tetrafluoroborate,LiBF$_{4}$,93.746,g/mol,296.5,$^{\circ}$C,,,,,Very soluble
Dimercaprol,C$_{3}$H$_{8}$S$_{2}$O,,,,,,,,,
O-Anisidine,C$_{7}$H$_{9}$NO,,,6.2,$^{\circ}$C,1.0923,g/cm$^{3}$,224,$^{\circ}$C,1.5
Borirane,BC$_{2}$H$_{5}$,,,-129,$^{\circ}$C,,,-24,$^{\circ}$C,15.425
BOP reagent,C$_{12}$H$_{22}$F$_{6}$N$_{6}$OP$_{2}$,442.281,g/mol,136-140,$^{\circ}$C,,,,,Partially soluble in cold water
Methylphosphonic acid dichloride,CH$_{3}$Cl$_{2}$OP,,,28-34,$^{\circ}$C,,,163,$^{\circ}$C,
BIMU8,C19H26N4O2<big>$\cdot$HCl</big>,,,,,,,,,
Isoprenaline,C$_{11}$H$_{17}$NO$_{3}$,,,,,,,,,
Sulfasalazine,C$_{18}$H$_{14}$N$_{4}$O$_{5}$S,,,,,,,,,
Eupione,C$_{5}$H$_{12}$,,,,,,,,,Insoluble in water
Norgestrienone,C$_{20}$H$_{22}$O$_{2}$,,,,,,,,,
Xenon difluoride,XeF$_{2}$,,,128.6,$^{\circ}$C,,,,,25
Terazosin,C$_{19}$H$_{25}$N$_{5}$O$_{4}$,,,,,,,,,
Plumbane,PbH$_{4}$,211.23,g/mol,,,,,-13,$^{\circ}$C,
Dibutyl ether,C$_{8}$H$_{18}$O,,,-97.9,$^{\circ}$C,,,142.4,$^{\circ}$C,0.03%
Benzazocine,C$_{11}$H$_{9}$N,155.20,g/mol,,,,,,,
Caesium dodecaborate,B$_{12}$H$_{12}$Cs$_{2}$,407.61.21,g/mol,>650,$^{\circ}$C,,,,,low
Dibromotetrafluoroethane,C$_{2}$Br$_{2}$F$_{4}$,,,,,,,47.3,$^{\circ}$C,not soluble in water