Name,formula,Property Molar Mass,Property Molar Mass units,Property Melting Point,Property Melting Point units,Property Density,Property Density units,Property Boiling Point,Property Boiling Point units,Property Solubility
Tungsten(V) bromide,WBr$_{5}$,583.36,g/mol,286,$^{\circ}$C,,,333,$^{\circ}$C,
Chloroacetyl chloride,C$_{2}$H$_{2}$Cl$_{2}$O,,,-22,$^{\circ}$C,,,106,$^{\circ}$C,Reacts
Calcium chromate,CaCrO$_{4}$,156.072,g/mol,2710,$^{\circ}$C,3.12,g/cm$^{3}$,,,anhydrous  4.5
Terbium(III) iodide,TbI$_{3}$,539.638,g/mol,957,$^{\circ}$C,,,,,
Tetrakis(hydroxymethyl)phosphonium chloride,(HOCH$_{2}$)$_{4}$PCl,190.56,g/mol,150,$^{\circ}$C,1.341,g/cm$^{3}$,,,N/A
Halcinonide,C$_{24}$H$_{32}$ClFO$_{5}$,,,,,,,,,
Chlorobis(cyclooctene)rhodium dimer,C$_{32}$H$_{56}$Cl$_{2}$Rh$_{2}$,,,,,,,,,
Naloxone,C$_{19}$H$_{21}$NO$_{4}$,,,,,,,,,
Abnormal cannabidiol,,,,,,,,,,
Guar gum,C$_{5}$H$_{8}$N$_{4}$O$_{12}$,,,,,,,,,
Rhynchophylline,C$_{22}$H$_{28}$N$_{2}$O$_{4}$,,,,,,,,,
Ajmalicine,C$_{21}$H$_{24}$N$_{2}$O$_{3}$,,,,,,,,,
Iron(II III) sulfide,FeS.Fe$_{2}$S$_{3}$,,,,,4.049,g/cm$^{3}$,,,
Disodium glutamate,C$_{5}$H$_{7}$NNa$_{2}$O$_{4}$,191.09,g/mol,,,,,225,$^{\circ}$C,73.9
Bacitracin,C$_{66}$H$_{103}$N$_{17}$O$_{16}$S,,,,,,,,,
L 663536,C$_{27}$H$_{34}$ClNO$_{2}$S,,,,,,,,,
Lortalamine,C$_{15}$H$_{17}$ClN$_{2}$O$_{2}$,,,,,,,,,
Fluoroacetyl chloride,C$_{2}$FOClH$_{2}$,,,,,,,70-71,$^{\circ}$C,
Psilocin,C$_{12}$H$_{16}$N$_{2}$O,,,,,,,,,
Methyl-DMA,C$_{12}$H$_{19}$NO$_{2}$,209.285,g/mol,,,,,,,
Zinc trifluoromethanesulfonate,C$_{2}$F$_{6}$O$_{6}$S$_{2}$Zn,,,,,,,,,
Anserine,C$_{10}$H$_{16}$N$_{4}$O$_{3}$,,,,,,,,,
Benzo(b)fluoranthene,C$_{20}$H$_{12}$,,,168,$^{\circ}$C,1.286,g/cm$^{3}$,,,
Aldesulfone sodium,,,,,,,,,,
AS-8112,C$_{17}$H$_{27}$BrN$_{4}$O$_{2}$,399.325,g/mol,,,,,,,
Trichlorofluorosilane,SiCl$_{3}$F,153.43,g/mol,,,,,,,
Bronidox,C$_{4}$H$_{6}$NO$_{4}$Br,,,60,$^{\circ}$C,,,,,insoluble
Aprindine,C$_{22}$H$_{30}$N$_{2}$,,,,,,,,,
CAR-226 086,,,,,,,,,,
Cefonicid,C$_{18}$H$_{18}$N$_{6}$O$_{8}$S$_{3}$,,,,,,,,,
Yttrium(III) phosphate,O$_{4}$PY,,,,,,,,,
Tetraethylammonium chloride,C$_{8}$H$_{20}$ClN,,,37.5,$^{\circ}$C,1.08,g/cm$^{3}$,,,highly soluble
Magnesium citrate (3:2),C$_{12}$H$_{10}$Mg$_{3}$O$_{14}$,,,,,,,,,
EDDHA,C$_{18}$H$_{20}$N$_{2}$O$_{6}$,,,,,,,,,
Serotonin,C$_{10}$H$_{12}$N$_{2}$O,,,,,,,,,
Prinomastat,C$_{28}$H$_{26}$N$_{2}$O$_{10}$,,,,,,,,,
Guaiacol,C$_{7}$H$_{8}$O$_{2}$,124.14,g/mol,28,$^{\circ}$C,,,204-206,$^{\circ}$C,
Janus Green B,C$_{30}$H$_{31}$ClN$_{6}$,511.06,g/mol,,,,,,,
Fipronil,C$_{12}$H$_{4}$Cl$_{2}$F$_{6}$N$_{4}$OS,437.15,g/mol,200.5,$^{\circ}$C,1.477-1.626,g/cm$^{3}$,,,
Iron(II) hydroxide,Fe(OH)$_{2}$,89.86,g/mol,,,3.4,g/cm$^{3}$,,,0.72
Chlorfenapyr,C$_{15}$H$_{11}$BrClF$_{3}$N$_{2}$O,407.6,g/mol,100-101,$^{\circ}$C,,,,,
Fluoroboric acid,HBF$_{4}$,,,-90,$^{\circ}$C,,,130,$^{\circ}$C,
Propiophenone,C$_{9}$H$_{10}$O,,,18.6,$^{\circ}$C,,,218,$^{\circ}$C,Insoluble
Licochalcone A,C$_{21}$H$_{22}$O$_{4}$,338.39,g/mol,,,,,,,
Pentostatin,C$_{11}$H$_{16}$N$_{4}$O$_{4}$,,,,,,,,,
Robatumumab,C$_{6418}$H$_{9960}$N$_{1732}$O$_{1992}$S$_{42}$,,,,,,,,,
Pyocyanin,C$_{13}$H$_{10}$N$_{2}$O,,,,,,,,,
Tricyanoaminopropene,C$_{6}$H$_{4}$N$_{4}$,,,,,,,,,
Lithium sulfide,Li$_{2}$S,45.95,g/mol,938,$^{\circ}$C,1.66,g/cm$^{3}$,1372,$^{\circ}$C,very soluble
Remogliflozin etabonate,,,,,,,,,,
AL-LAD,C$_{22}$H$_{27}$N$_{3}$O,,,,,,,,,
Desoxymethyltestosterone,C$_{20}$H$_{32}$O,,,,,,,,,
UK-432 097,C$_{40}$H$_{47}$N$_{11}$O$_{6}$,,,,,,,,,
Finasteride,C$_{23}$H$_{36}$N$_{2}$O$_{2}$,,,,,,,,,
Rilmenidine,C$_{10}$H$_{16}$N$_{2}$O,,,,,,,,,
N N-Dimethyldopamine,C$_{10}$H$_{15}$NO$_{2}$,,,,,,,,,
O-Cresol,C$_{7}$H$_{8}$O,,,,,,,,,Miscible (at 30 $^{\circ}$C)
Iron sucrose,,,,,,,,,,
Valnemulin,C$_{31}$H$_{52}$N$_{2}$O$_{5}$S,,,,,,,,,
Propylene oxide,C$_{3}$H$_{6}$O,,,-112,$^{\circ}$C,0.830,g/cm$^{3}$,34,$^{\circ}$C,41% (20$^{\circ}$C)
Argininosuccinic acid,C$_{10}$H$_{18}$N$_{4}$O$_{6}$,,,,,,,,,
Alpha-Ketobutyric acid,C$_{4}$H$_{6}$O$_{3}$,102.089,g/mol,,,,,,,
Carpronium chloride,,,,,,,,,,
Methyl cellulose,variable,,,,,,,,,
Sodium uranate,Na$_{2}$O(UO$_{3}$)$_{2}$,,,1646,$^{\circ}$C,,,,,
Tesetaxel,C$_{46}$H$_{60}$FN$_{3}$O$_{13}$,,,,,,,,,
Elsamitrucin,C$_{33}$H$_{35}$NO$_{13}$,,,,,,,,,
Azelnidipine,C$_{33}$H$_{34}$N$_{4}$O$_{6}$,,,,,,,,,
Difenoxin,C$_{28}$H$_{28}$N$_{2}$O$_{2}$,,,,,,,,,
Bifenthrin,C$_{23}$H$_{22}$ClF$_{3}$O$_{2}$,,,,,,,,,0.1
Boron arsenide,BAsorB$_{12}$As$_{2}$,85.733,g/mol,2027,$^{\circ}$C,,,,,Insoluble
Tetrahydroharmine,C$_{13}$H$_{12}$N$_{2}$O,216.279,g/mol,,,,,399.2,$^{\circ}$C,
Carbadox,C$_{11}$H$_{10}$N$_{4}$O$_{4}$,262.22,g/mol,239.5,$^{\circ}$C,1.44,g/cm$^{3}$,,,Insoluble
Trolnitrate,C$_{6}$H$_{12}$N$_{4}$O$_{9}$,284.18,g/mol,,,,,,,
CGP-35348,C$_{8}$H$_{20}$NO$_{4}$P,,,,,,,,,
Hydrocortisone 17-butyrate,C$_{25}$H$_{36}$O$_{6}$,432.55,g/mol,,,,,,,
Beta-Hydroxybutyric acid,C$_{4}$H$_{8}$O$_{3}$,,,,,,,,,
Metenolone,C$_{20}$H$_{30}$O$_{2}$,,,,,,,,,
Difetarsone,C$_{14}$H$_{18}$As$_{2}$N$_{2}$O$_{6}$,,,,,,,,,
Palladium(II) iodide,PdI$_{2}$,360.229,g/mol,,,,,,,
Sotalol,C$_{12}$H$_{20}$N$_{2}$O$_{3}$S,,,,,,,,,
Butyryl phosphate,C$_{4}$H$_{9}$O$_{5}$P,168.085,g/mol,,,,,,,
O-1871,C$_{23}$H$_{38}$O$_{2}$,,,,,,,,,
Acryloyl chloride,C$_{3}$H$_{3}$ClO,,,,,1.119,g/cm$^{3}$,75.0,$^{\circ}$C,
Pyrazinoic acid,C$_{5}$H$_{4}$N$_{2}$O$_{2}$,124.10,g/mol,222-225,$^{\circ}$C,,,313.1,$^{\circ}$C,soluble in cold water
Scandium dodecaboride,ScB$_{12}$,174.69,g/mol,,,,,,,
Methylphenidate,C$_{14}$H$_{19}$NO$_{2}$,,,,,,,,,
Bupivacaine,C$_{18}$H$_{28}$N$_{2}$O,,,,,,,,,
AM-694,C$_{20}$H$_{19}$FINO,,,,,,,,,
Pozanicline,C$_{11}$H$_{16}$N$_{2}$O,,,,,,,,,
Lorajmine,C$_{22}$H$_{27}$ClN$_{2}$O$_{3}$,,,,,,,,,
TAPSO (buffer),C$_{7}$H$_{17}$NO$_{7}$S,259.28,g/mol,,,,,,,
Auramine O,C$_{17}$H$_{22}$N$_{3}$Cl,,,267,$^{\circ}$C,,,,,
Pectic acid,(C$_{6}$H$_{8}$O$_{6}$)$_{n}$,,,,,,,,,
Perrhenic acid,H$_{4}$O$_{9}$Re$_{2}$(SOLiD),251.2055,g/mol,,,,,,,Soluble
Isovitexin,C$_{21}$H$_{20}$O$_{10}$,432.38,g/mol,,,,,,,
Lanthanum oxide,La$_{2}$O$_{3}$,325.809,g/mol,2315,$^{\circ}$C,,,4200,$^{\circ}$C,Insoluble
Proxyfan,C$_{13}$H$_{16}$N$_{2}$O,216.279,g/mol,,,,,,,
Thioinosinic acid,C$_{10}$H$_{13}$N$_{4}$O$_{7}$PS,364.27,g/mol,,,,,,,
AC-262 356,,,,,,,,,,
Lesquerolic acid,C$_{20}$H$_{38}$O$_{3}$,,,,,,,,,
Ganesha (psychedelic),C$_{13}$H$_{21}$NO$_{2}$,,,,,,,,,
Questiomycin A,C$_{12}$O$_{2}$N$_{2}$H$_{8}$,,,,,,,,,
Chlorobenzilate,C$_{16}$H$_{14}$Cl$_{2}$O$_{3}$,,,37,$^{\circ}$C,1.28,g/cm$^{3}$,,,
Alendronic acid,,,,,,,,,,
Mepyramine,C$_{17}$H$_{23}$N$_{3}$O,,,,,,,,,
Farnesol,C$_{15}$H$_{26}$O,222.37,g/mol,,,0.887,g/cm$^{3}$,283-284.00,$^{\circ}$C,
Hexachlorodisilane,Si$_{2}$Cl$_{6}$,268.88,g/mol,-1,$^{\circ}$C,,,144,$^{\circ}$C,
Propatylnitrate,C$_{6}$H$_{11}$N$_{3}$O$_{9}$,269.17,g/mol,,,,,,,
Hyponitrous acid,H$_{2}$N$_{2}$O$_{2}$,62.0282,g/mol,,,,,,,
Choline theophyllinate,,,,,,,,,,
Cytidine triphosphate,C$_{9}$H$_{16}$N$_{3}$O$_{14}$P$_{3}$,,,,,,,,,
Potassium bis(trimethylsilyl)amide,KSi$_{2}$C$_{6}$NH$_{18}$,,,,,,,,,Reacts
Bleomycin,C$_{55}$H$_{84}$N$_{17}$O$_{21}$S$_{3}$,,,,,,,,,
Diffutin,C$_{23}$H$_{28}$O$_{10}$,464.46,g/mol,,,,,,,
Amurensin A,C$_{28}$H$_{24}$O$_{7}$,472.48,g/mol,,,,,,,
Oleanolic acid,C$_{30}$H$_{48}$O$_{3}$,,,> 300,$^{\circ}$C,,,,,
Yellowcake,"variable,seetext",,,2880,$^{\circ}$C,,,,,
Dolichol,C$_{100}$H$_{164}$O,,,,,,,,,
Dulcin,C$_{9}$H$_{12}$N$_{2}$O$_{2}$,180.20,g/mol,,,,,,,
Carubicin,C$_{26}$H$_{27}$NO$_{10}$,513.49,g/mol,,,,,,,
Ruthenium(IV) oxide,RuO$_{2}$,133.0688,g/mol,,,6.97,g/cm$^{3}$,1200,$^{\circ}$C,insoluble
HOT-17,C$_{14}$H$_{23}$NO$_{3}$S,285.40,g/mol,,,,,,,
Scarlet GN,C$_{18}$H$_{14}$N$_{2}$Na$_{2}$O$_{7}$S$_{2}$,,,,,,,,,
Capravirine,C$_{20}$H$_{20}$Cl$_{2}$N$_{4}$O$_{2}$S,451.37,g/mol,,,,,,,
Detomidine,C$_{12}$H$_{14}$N$_{2}$,,,,,,,,,
Mercury monofluoride,Hg$_{2}$F$_{2}$,439.177,g/mol,,,,,,,
Cerium(III) hydroxide,Ce(OH)$_{3}$,191.148,g/mol,,,,,,,insoluble
Sodium decavanadate,Na$_{6}$(V$_{10}$O$_{28}$),,,,,,,,,
Desvenlafaxine,C$_{16}$H$_{25}$NO$_{2}$,,,,,,,,,
Sodium cyclopentadienide,C$_{5}$H$_{5}$Na,,,,,,,,,decomposition
Titanium(III) phosphide,TiP,78.841,g/mol,,,,,,,
Haloprogin,C$_{9}$H$_{4}$Cl$_{3}$IO,,,113.5,$^{\circ}$C,,,,,insoluble
Docetaxel,C$_{43}$H$_{53}$NO$_{14}$,,,,,,,,,
Silver(II) fluoride,AgF$_{2}$,145.865,g/mol,690,$^{\circ}$C,4.58,g/cm$^{3}$,700,$^{\circ}$C,Decomposes violently
Polyglutamic acid,(C$_{5}$H$_{7}$NO$_{3}$)$_{n}$,,,,,,,,,
Trifluoromethyltrimethylsilane,C$_{4}$H$_{9}$F$_{3}$Si,,,,,,,54-55,$^{\circ}$C,
Racecadotril,C$_{21}$H$_{23}$NO$_{4}$S,,,,,,,,,
Talastine,C$_{19}$H$_{21}$N$_{3}$O,,,,,,,,,
JTC-801,C$_{26}$H$_{25}$N$_{3}$O$_{2}$,,,,,,,,,
Oripavine,C$_{18}$H$_{19}$NO$_{3}$,297.348,g/mol,,,,,,,
Lubiprostone,C$_{20}$H$_{32}$F$_{2}$O$_{5}$,,,,,,,,,
Ferrocenium tetrafluoroborate,C$_{10}$H$_{10}$BFeF$_{4}$,272.84,g/mol,178,$^{\circ}$C,,,,,
Tilbroquinol,C$_{10}$H$_{8}$BrNO,,,,,,,,,
Nitrite,NO$^{2-}$,,,,,,,,,
Superphane,C$_{24}$H$_{24}$,,,,,,,,,
Vaccenyl acetate,C$_{20}$H$_{38}$O$_{2}$,310.51,g/mol,,,,,,,
Niflumic acid,,,,,,,,,,
Heavy water,D$_{2}$O,,,,,,,101.4,$^{\circ}$C,Soluble
Titanium tetrafluoride,TiF$_{4}$,123.861,g/mol,377,$^{\circ}$C,2.798,g/cm$^{3}$,,,
Donepezil,C$_{24}$H$_{29}$NO$_{3}$,,,,,,,,,
Galanolactone,C$_{20}$H$_{30}$O$_{3}$,318.45,g/mol,,,,,,,
Eprosartan,C$_{23}$H$_{24}$N$_{2}$O$_{4}$S,,,,,,,,,
Pentylenetetrazol,C$_{6}$H$_{10}$N$_{4}$,,,,,,,,,
Hydroxytropacocaine,C$_{15}$H$_{19}$NO$_{3}$,261.32,g/mol,,,,,,,
Fenozolone,C$_{11}$H$_{12}$N$_{2}$O$_{2}$,,,,,,,,,
Leumorphin,C$_{161}$H$_{236}$N$_{42}$O$_{48}$,3527.85,g/mol,,,,,,,
AL-38022A,C$_{13}$H$_{17}$N$_{3}$O,,,106,$^{\circ}$C,,,,,
Cilazapril,C$_{22}$H$_{31}$N$_{3}$O$_{5}$,,,,,,,,,
Alfuzosin,C$_{19}$H$_{27}$N$_{5}$O$_{4}$,,,,,,,,,
NS-11394,C$_{23}$H$_{19}$N$_{3}$O,,,,,,,,,
Tetrahydropalmatine,C$_{21}$H$_{25}$NO$_{4}$,,,,,,,,,
Tralomethrin,C$_{22}$H$_{19}$Br$_{4}$NO$_{3}$,,,138,$^{\circ}$C,,,594,$^{\circ}$C,
Manganese(II III) oxide,Mn$_{3}$O$_{4}$,228.812,g/mol,1567,$^{\circ}$C,4.86,g/cm$^{3}$,2847,$^{\circ}$C,insoluble
Gymnopusin,C$_{17}$H$_{16}$O$_{5}$,,,,,,,,,
Graphane,(CH)$_{n}$,,,,,,,,,
Diatoxanthin,C$_{40}$H$_{54}$O$_{2}$,,,,,,,708.3,$^{\circ}$C,
Sorbitol,C$_{6}$H$_{14}$O$_{6}$,182.17,g/mol,111,$^{\circ}$C,1.489,g/cm$^{3}$,290-295,$^{\circ}$C,2350
Trigonelline,C$_{7}$H$_{7}$O$_{2}$N,,,230-233,$^{\circ}$C,,,,,
Bromobimane,C$_{10}$H$_{11}$BrN$_{2}$O$_{2}$,,,152-154,$^{\circ}$C,,,,,"in MeOH, DMF, DMSO"
Icaridin,C$_{12}$H$_{23}$NO$_{3}$,229.3,g/mol,,,,,296,$^{\circ}$C,
Beta-Carboline,C$_{11}$H$_{8}$N$_{2}$,168.20,g/mol,,,,,,,
Methylbenzylpiperazine,C$_{12}$H$_{18}$N$_{2}$,,,,,,,,,
Uroporphyrinogen I,C$_{40}$H$_{44}$N$_{4}$O$_{16}$,,,,,,,,,
Fisetinidol,C$_{15}$H$_{14}$O$_{5}$,274.26,g/mol,,,,,,,
Allose,C$_{6}$H$_{12}$O$_{6}$,,,128,$^{\circ}$C,,,,,
Sodium silicate,Na$_{2}$SiO$_{3}$,,,1088,$^{\circ}$C,,,,,22.2
Propylisopropyltryptamine,C$_{16}$H$_{24}$N$_{2}$,,,,,,,,,
AB-001,C$_{24}$H$_{31}$NO,,,,,,,,,
Gadolinium(III) oxide,Gd$_{2}$O$_{3}$,362.50,g/mol,2420,$^{\circ}$C,7.407,g/cm$^{3}$,,,insoluble
Norwogonin,C$_{15}$H$_{10}$O$_{5}$,270.23,g/mol,,,,,,,
Diloxanide furoate,,,,,,,,,,
Aminopropionitrile,C$_{3}$H$_{6}$N$_{2}$,,,,,,,,,
Filaminast,C$_{15}$H$_{20}$N$_{2}$O$_{4}$,,,,,,,,,
Nickel selenide,NiSe,137.65,g/mol,,,7.2,g/cm$^{3}$,,,Insoluble
Methyl aminolevulinate,,,,,,,,,,
Lipoamide,C$_{8}$H$_{15}$NOS$_{2}$,205.343,g/mol,,,,,,,
Gold(I) chloride,AuCl,232.423,g/mol,170,$^{\circ}$C,7.6,g/cm$^{3}$,298,$^{\circ}$C,very slightly soluble
Vilanterol,C$_{24}$H$_{33}$Cl$_{2}$NO$_{5}$,,,,,,,,,
Polygodial,C$_{15}$H$_{22}$O$_{2}$,,,,,,,,,
Methylisothiazolinone,C$_{4}$H$_{5}$NOS,115.1,g/mol,,,,,,,
Neo-Inositol,C$_{6}$H$_{12}$O$_{6}$,,,,,,,,,
Mitomycins,C$_{15}$H$_{18}$N$_{4}$O$_{5}$,,,360,$^{\circ}$C,,,,,8.43
Hexamethonium,C$_{12}$H$_{30}$N$_{2}$,,,,,,,,,
Aptazapine,C$_{16}$H$_{19}$N$_{3}$,,,,,,,,,
Calcium fluoride,CaF$_{2}$,,,1418,$^{\circ}$C,3.18,g/cm$^{3}$,2533,$^{\circ}$C,0.0015
Clonidine,C$_{9}$H$_{9}$Cl$_{2}$N$_{3}$,,,,,,,,,
Adipoyl chloride,C$_{6}$H$_{8}$Cl$_{2}$O$_{2}$,,,,,1.25,g/cm$^{3}$,105-107,$^{\circ}$C,
Sonepiprazole,C$_{21}$H$_{27}$N$_{3}$O$_{3}$S,,,,,,,,,
Trimeperidine,C$_{17}$H$_{25}$NO$_{2}$,,,,,,,,,
Nitrosourea,CH$_{3}$N$_{3}$O$_{2}$,,,,,,,,,
Domiodol,C$_{5}$H$_{9}$IO$_{3}$,,,,,,,,,
Amido black 10B,C$_{22}$H$_{14}$N$_{6}$Na$_{2}$O$_{9}$S$_{2}$,,,,,,,,,~ 30
Lubazodone,C$_{14}$H$_{18}$FNO$_{2}$,,,,,,,,,
Sec-Butyllithium,C$_{4}$H$_{9}$Li,,,,,,,,,
Captan,C$_{9}$H$_{8}$Cl$_{3}$NO$_{2}$S,300.59,g/mol,178,$^{\circ}$C,1.74,g/cm$^{3}$,,,
Acetylcarnosine,C$_{11}$H$_{16}$N$_{4}$O$_{4}$,268.27,g/mol,,,,,,,
Artemether,C$_{16}$H$_{26}$O$_{5}$,,,,,,,,,
Thiourea dioxide,CH$_{4}$N$_{2}$O$_{2}$S,,,126,$^{\circ}$C,,,,,3.0
Polychlorotrifluoroethylene,(C$_{2}$ClF$_{3}$)$_{n},,,,,,,,,
Beryllium telluride,BeTe,136.612,g/mol,,,5.1,g/cm$^{3}$,,,
Ammonium bifluoride,H$_{5}$F$_{2}$N,,,126,$^{\circ}$C,,,240,$^{\circ}$C,63g/100ml 20$^{\circ}$C
Betaxolol,C$_{18}$H$_{29}$NO$_{3}$,,,,,,,,,
Terephthaloyl chloride,C$_{8}$H$_{4}$Cl$_{2}$O$_{2}$,203.02,g/mol,81.5-83,$^{\circ}$C,1.34,g/cm$^{3}$,265,$^{\circ}$C,
Rhamnolipid,C$_{32}$H$_{58}$O$_{13}$,,,,,,,,,
Flavogallonic acid,C$_{21}$H$_{14}$O$_{12}$,458.32,g/mol,,,,,,,
Gefarnate,C$_{27}$H$_{44}$O$_{2}$,,,,,,,,,
Nelfinavir,C$_{32}$H$_{45}$N$_{3}$O$_{4}$S,,,,,,,,,
IDFP,C$_{15}$H$_{32}$FO$_{2}$P,294.39,g/mol,,,,,,,
Eterobarb,C$_{16}$H$_{20}$N$_{2}$O$_{5}$,,,,,,,,,
Sodium ethoxide,C$_{2}$H$_{5}$ONa,68.05,g/mol,260,$^{\circ}$C,,,,,Reacts
Posaconazole,C$_{37}$H$_{42}$F$_{2}$N$_{8}$O$_{4}$,,,,,,,,,
Clomipramine,C$_{19}$H$_{23}$ClN$_{2}$,,,,,,,,,
Cefteram,C$_{16}$H$_{17}$N$_{9}$O$_{5}$S$_{2}$,,,,,,,,,
Taspoglutide,C$_{152}$H$_{232}$N$_{40}$O$_{45}$,,,,,,,,,
Fenamic acid,C$_{13}$H$_{11}$NO$_{2}$,213.23,g/mol,,,,,,,
Nitrazepate,C$_{16}$H$_{11}$N$_{3}$O$_{5}$,,,,,,,,,
CX614,C$_{13}$H$_{13}$NO$_{4}$,,,,,,,,,
Ethyl carfluzepate,,,,,,,,,,
Hemorphin-4,C$_{29}$H$_{35}$N$_{5}$O$_{7}$,565.618,g/mol,,,,,,,
Hydrofluoric acid,HF(aq),,,,,,,,,Miscible.
Beryllium fluoride,BeF$_{2}$,47.01,g/mol,554,$^{\circ}$C,1.986,g/cm$^{3}$,1169,$^{\circ}$C,very soluble
Pentetic acid,C$_{14}$H$_{23}$N$_{3}$O$_{10}$,,,220,$^{\circ}$C,,,,,<0.5
Harmalol,C$_{12}$H$_{12}$N$_{2}$O,,,100-105,$^{\circ}$C,,,,,
Iproclozide,C$_{11}$H$_{15}$ClN$_{2}$O$_{2}$,,,,,,,,,
Pirisudanol,C$_{16}$H$_{24}$N$_{2}$O$_{6}$,,,,,,,,,
Beta-Amanitin,C$_{39}$H$_{53}$N$_{9}$O$_{15}$S,919.95,g/mol,,,,,,,
Diepoxybutane,C$_{4}$H$_{6}$O$_{2}$,,,4,$^{\circ}$C,1.113,g/cm$^{3}$,138,$^{\circ}$C,Miscible
Ammonium persulfate,(NH$_{4}$)$_{2}$S$_{2}$O$_{8}$,228.18,g/mol,120,$^{\circ}$C,1.98,g/cm$^{3}$,,,80
Cyanuric chloride,C$_{3}$Cl$_{3}$N$_{3}$,,,154,$^{\circ}$C,1.32,g/cm$^{3}$,192,$^{\circ}$C,hydrolyzes
Clofilium,C$_{21}$H$_{37}$ClN+,338.98,g/mol,,,,,,,
Pirprofen,C$_{13}$H$_{14}$ClNO$_{2}$,,,,,,,,,
TEMPO,C$_{9}$H$_{18}$NO,156.25,g/mol,36-38,$^{\circ}$C,,,,,
Fabomotizole,C$_{15}$H$_{21}$N$_{3}$O$_{2}$S,,,,,,,,,
Dextran,H(C$_{6}$H$_{10}$O$_{5}$)$_{x}$OH,,,,,,,,,
Picein,C$_{14}$H$_{18}$O$_{7}$,,,,,,,,,
Thiopropamine,C$_{7}$H$_{11}$NS,,,,,,,,,
Semorphone,C$_{19}$H$_{23}$NO$_{5}$,,,,,,,,,
Chloromethyl methyl ether,C$_{2}$H$_{5}$ClO,,,-103.5,$^{\circ}$C,,,55-57,$^{\circ}$C,Decompose
Chlorobis(cyclooctene)iridium dimer,C$_{32}$H$_{56}$Cl$_{2}$Ir$_{2}$,,,,,,,,,
Glutaconyl-CoA,C$_{26}$H$_{40}$N$_{7}$O$_{19}$P$_{3}$S,879.62,g/mol,,,,,,,
Clo$\beta$sol propionate,C$_{25}$H$_{32}$ClFO$_{5}$,,,,,,,,,
Chlorphenesin,C$_{10}$H$_{12}$ClNO$_{4}$,,,,,,,,,
Galactitol,C$_{6}$H$_{14}$O$_{6}$,182.172,g/mol,,,,,,,
Methylglucoside,C$_{7}$H$_{14}$O$_{6}$,,,,,,,,,
Ioflupane (123I),,,,,,,,,,
Chloranilic acid,C$_{6}$H$_{2}$Cl$_{2}$O$_{4}$,208.98,g/mol,$\geq$300,$^{\circ}$C,1.93,g/cm$^{3}$,,,
Caesium fluoride,CsF,151.90,g/mol,682,$^{\circ}$C,4.115,g/cm$^{3}$,1251,$^{\circ}$C,367
Technetium(VII) oxide,Tc$_{2}$O$_{7}$,307.810,g/mol,119.5,$^{\circ}$C,3.5,g/cm$^{3}$,310.6,$^{\circ}$C,hydrolysis to HTcO$_{4}$
P-Coumaric acid,C$_{9}$H$_{8}$O$_{3}$,,,210-213,$^{\circ}$C,,,,,
Flumequine,C$_{14}$H$_{12}$FNO$_{3}$,,,,,,,,,
Bepridil,C$_{24}$H$_{34}$N$_{2}$O,,,,,,,,,
Pantothenic acid,C$_{9}$H$_{17}$NO$_{5}$,,,183.83,$^{\circ}$C,1.266,g/cm$^{3}$,,,2.11
Lofendazam,C$_{15}$H$_{13}$ClN$_{2}$O,,,,,,,,,
Evofosfamide,C$_{9}$H$_{16}$Br$_{2}$N$_{5}$O$_{4}$P,,,,,,,,,6-7
Etoxeridine,C$_{18}$H$_{27}$NO$_{4}$,,,,,,,,,
Clofarabine,C$_{10}$H$_{11}$ClFN$_{5}$O$_{3}$,,,,,,,,,
Flumazenil,C$_{15}$H$_{14}$FN$_{3}$O$_{3}$,,,,,,,,,
Alpha-Pyrrolidinopropiophenone,C$_{13}$H$_{17}$NO,,,,,,,,,
Acibenzolar-S-methyl,C$_{8}$N$_{2}$H$_{6}$S$_{2}$O,,,133,$^{\circ}$C,,,,,7.7
WAY-629,C$_{15}$H$_{18}$N$_{2}$,,,,,,,,,
Mycolactone,C$_{44}$H$_{70}$O$_{9}$,,,,,,,,,
Phenpromethamine,C$_{10}$H$_{15}$N,,,,,,,,,
Hexafluoroacetylacetone,C$_{5}$H$_{2}$F$_{6}$O$_{2}$,208.06,g/mol,,,,,70-71,$^{\circ}$C,organic solvents
Hydroxyethyl methyl cellulose,variable,,,,,,,,,
Nefazodone,C$_{25}$H$_{32}$ClN$_{5}$O$_{2}$,,,,,,,,,
Sodium sorbate,C$_{6}$H$_{7}$NaO$_{2}$,134.10835,g/mol,,,,,233,$^{\circ}$C,
Tioxolone,C$_{7}$H$_{4}$O$_{3}$S,,,158-160,$^{\circ}$C,,,,,
PCCG-4,C$_{12}$H$_{13}$NO$_{4}$,,,,,,,,,
Alpha-Tocopherol,C$_{29}$H$_{50}$O$_{2}$,430.71,g/mol,2.5-3.5,$^{\circ}$C,0.950,g/cm$^{3}$,200-220,$^{\circ}$C,
Cilofungin,C$_{49}$H$_{71}$N$_{7}$O$_{17}$,,,,,,,,,
Maltose,C$_{12}$H$_{22}$O,,,160-165,$^{\circ}$C,1.54,g/cm$^{3}$,,,1.080
Tucotuzumab celmoleukin,,,,,,,,,,
Myrcene,C$_{10}$H$_{16}$,,,,,0.794,g/cm$^{3}$,166-168,$^{\circ}$C,
Lanicemine,C$_{13}$H$_{14}$N$_{2}$,,,,,,,,,
Nuciferine,C$_{19}$H$_{21}$NO$_{2}$,295.376,g/mol,,,,,,,
Loxapine,C$_{18}$H$_{18}$ClN$_{3}$O,,,109,$^{\circ}$C,,,,,
VE (nerve agent),C$_{10}$H$_{24}$NO$_{2}$PS,253.34,g/mol,,,,,,,
Spinacetin,C$_{17}$H$_{14}$O$_{8}$,346.28,g/mol,,,,,,,
Voacamine,C$_{43}$H$_{52}$N$_{4}$O$_{5}$,,,,,,,,,
Butyl cyanoacrylate,C$_{8}$H$_{11}$NO$_{2}$,153.18,g/mol,,,,,83-84,$^{\circ}$C,
Poly(N-isopropylacrylamide),(C$_{6}$H$_{11}$NO)$_{n}$,,,96,$^{\circ}$C,1.1,g/cm$^{3}$,,,
Chrysene,C$_{18}$H$_{12}$,,,254,$^{\circ}$C,1.274,g/cm$^{3}$,448,$^{\circ}$C,Insoluble
O-Phenylenediamine,C$_{6}$H$_{8}$N$_{2}$,108.1,g/mol,102,$^{\circ}$C,1.031,g/cm$^{3}$,252,$^{\circ}$C,soluble in hot water
PSB-SB-1202,C$_{23}$H$_{26}$O$_{4}$,,,,,,,,,
Norvinisterone,C$_{20}$H$_{28}$O$_{2}$,,,169,$^{\circ}$C,,,,,
Bis(trimethylsilyl)acetylene,C$_{8}$H$_{18}$Si$_{2}$,,,26,$^{\circ}$C,0.791,g/cm$^{3}$,,,0.031
Cyclohexylmethanol,C$_{7}$H$_{14}$O,,,19,$^{\circ}$C,,,187-188,$^{\circ}$C,small in water
Phaseic acid,C$_{15}$H$_{20}$O$_{5}$,280.31,g/mol,,,,,,,
Megazol,chemical_formulaC$_{6}$H$_{6}$N$_{6}$O$_{2}$S,,,,,,,,,
Octamoxin,C$_{8}$H$_{20}$N$_{2}$,,,,,,,228,$^{\circ}$C,
Pralidoxime,C7H9N2O1charge+,,,,,,,,,
CS gas (data page),C$_{10}$H$_{5}$ClN$_{2}$,188.6,g/mol,93,$^{\circ}$C,1.04,g/cm$^{3}$,310,$^{\circ}$C,no
Tyramine,C$_{8}$H$_{11}$NO,137.179,g/mol,164-165,$^{\circ}$C,,,205-207,$^{\circ}$C,1
Tributylamine,C$_{12}$H$_{27}$N,,,-70,$^{\circ}$C,0.78,g/cm$^{3}$,214,$^{\circ}$C,50
Androstane,C$_{19}$H$_{32}$,,,,,,,,,
Coeloginin,C$_{17}$H$_{14}$O$_{6}$,314.29,g/mol,,,,,,,
Ethylamine,C$_{2}$H$_{7}$N,,,,,,,,,Miscible
Selamectin,C$_{43}$H$_{63}$NO,,,,,,,,,
MMAI,C$_{11}$H$_{15}$NO,,,,,,,,,
Dichloro(1 3-bis(diphenylphosphino)propane)nickel,C$_{27}$H$_{26}$Cl$_{2}$NiP$_{2}$,,,213,$^{\circ}$C,,,,,immiscible in water
Fenticonazole,C$_{24}$H$_{20}$Cl$_{2}$N$_{2}$OS,,,,,,,,,
Imidogen,HN,,,,,,,,,
Adafenoxate,C$_{20}$H$_{26}$ClNO$_{3}$,,,,,,,,,
Isovanillin,C$_{8}$H$_{8}$O$_{3}$,,,113,$^{\circ}$C,,,179,$^{\circ}$C,
Bis(triphenylphosphine)nickel chloride,C$_{36}$H$_{30}$Cl$_{2}$NiP$_{2}$,,,,,,,,,
Olaparib,C$_{24}$H$_{23}$FN$_{4}$O$_{3}$,,,,,,,,,
Eugenol,C$_{10}$H$_{12}$O$_{2}$,164.20,g/mol,-7.5,$^{\circ}$C,1.06,g/cm$^{3}$,254,$^{\circ}$C,
Tellurium tetrachloride,(TeCl$_{4}$)$_{4}$,1077.64,g/mol,224,$^{\circ}$C,,,380,$^{\circ}$C,
Indigo dye,C$_{16}$H$_{10}$N$_{2}$O$_{2}$,262.27,g/mol,390,$^{\circ}$C,1.199,g/cm$^{3}$,,,990
JNJ-Q2,C$_{21}$H$_{23}$F$_{2}$N$_{3}$O$_{4}$,,,,,,,,,
Biebrich scarlet,C$_{22}$H$_{16}$N$_{4}$O$_{7}$S$_{2}$,,,,,,,,,
Pamidronic acid,,,,,,,,,,
Indanthrone blue,C$_{28}$H$_{14}$N$_{2}$O$_{4}$,,,,,,,,,Insoluble
Allylprodine,C$_{18}$H$_{25}$NO$_{2}$,,,,,,,,,