Name,formula,Property Molar Mass,Property Molar Mass units,Property Melting Point,Property Melting Point units,Property Density,Property Density units,Property Boiling Point,Property Boiling Point units,Property Solubility
Capnellene,C$_{15}$H$_{24}$,,,,,,,,,
L-Arginine L-pyroglutamate,C$_{11}$H$_{21}$N$_{5}$O$_{5}$,,,210,$^{\circ}$C,,,,,soluble
PRX-07034,C$_{21}$H$_{29}$Cl$_{2}$N$_{3}$O$_{4}$S,,,,,,,,,
Indium phosphide,InP,145.792,g/mol,1062,$^{\circ}$C,,,,,
Silicon tetraiodide,SiI$_{4}$,535.7034,g/mol,120.5,$^{\circ}$C,4.198,g/cm$^{3}$,287.4,$^{\circ}$C,insoluble
Gamma-Valerolactone,C$_{5}$H$_{8}$O$_{2}$,,,-31,$^{\circ}$C,,,207-208,$^{\circ}$C,
Trifluoromethylisocyanide,CF$_{3}$NC,,,,,,,,,
Pullulan,(C$_{6}$H$_{12}$O$_{5}$)$_{n}$,,,,,,,,,Soluble
Barium chlorate,Ba(ClO$_{3}$)$_{2}$,304.23,g/mol,413.9,$^{\circ}$C,,,,,27.5
Phenylmercuric borate,C$_{6}$H$_{7}$BHgO$_{3}$,338.519,g/mol,112-113,$^{\circ}$C,,,,,
Caffeine (data page),C$_{8}$H$_{10}$N$_{4}$O$_{2}$,,,227-228,$^{\circ}$C,,,178,$^{\circ}$C,2.17
Desmethylprodine,C$_{15}$H$_{21}$NO$_{2}$,,,,,,,,,
Benzylideneacetone,C$_{10}$H$_{10}$O,146.19,g/mol,39-42,$^{\circ}$C,1.008,g/cm$^{3}$,260-262,$^{\circ}$C,
Isosorbide mononitrate,,,,,,,,,,
Nickelocene,C$_{10}$H$_{10}$Ni,188.88,g/mol,171-173,$^{\circ}$C,,,,,insoluble
Oxitriptyline,C$_{19}$H$_{21}$NO$_{2}$,,,,,,,,,
Dysprosium(III) chloride,DyCl$_{3}$,268.86,g/mol,647,$^{\circ}$C,,,1530,$^{\circ}$C,Soluble
Oxaprozin,C$_{18}$H$_{15}$NO$_{3}$,,,,,,,,,
Paraformaldehyde,OH(CH$_{2}$O)$_{n}$H(n8-100),,,120,$^{\circ}$C,,,,,low
NBUMP,C$_{26}$H$_{39}$N$_{3}$O$_{2}$,,,,,,,,,
Progesterone,C$_{21}$H$_{30}$O$_{2}$,,,,,,,,,
Diethyl ether,C$_{4}$H$_{10}$O,,,-116.3,$^{\circ}$C,,,34.6,$^{\circ}$C,69
Lipid II,C$_{94}$H$_{156}$N$_{8}$O$_{26}$P$_{2}$,,,,,,,,,
Bicalutamide,C$_{18}$H$_{14}$F$_{4}$N$_{2}$O$_{4}$S,,,,,,,,,
Tagatose,C$_{6}$H$_{12}$O$_{6}$,180.16,g/mol,133-135,$^{\circ}$C,,,,,
Aluminium hydroxide oxide,HAlO$_{2}$,,,,,3.01,g/cm$^{3}$,,,
Calcium copper titanate,CaCu$_{3}$Ti$_{4}$O$_{12}$,614.1789,g/mol,>1000,$^{\circ}$C,,,,,
Dimethylmercury,HgC$_{2}$H$_{6}$,,,-43,$^{\circ}$C,,,93,$^{\circ}$C,
FGIN-143,C$_{28}$H$_{36}$Cl$_{2}$N$_{2}$O,,,,,,,,,
Alfadolone,C$_{21}$H$_{32}$O$_{4}$,,,,,,,,,
Denosumab,C$_{6404}$H$_{9912}$N$_{1724}$O$_{2004}$S$_{50}$,,,,,,,,,
Sultamicillin,C$_{25}$H$_{30}$N$_{4}$O$_{9}$S$_{2}$,,,,,,,,,
Oxodipine,C$_{19}$H$_{21}$NO$_{6}$,,,,,,,,,
Urocanic acid,C$_{6}$H$_{6}$N$_{2}$O$_{2}$,138.124,g/mol,225,$^{\circ}$C,,,,,
Epirizole,C$_{11}$H$_{14}$N$_{4}$O$_{2}$,,,,,,,,,
Thallium(I) fluoride,TlF$^{2.}$,223.3817,g/mol,327,$^{\circ}$C,,,655,$^{\circ}$C,78.6
Chromium(I) hydride,CrH,53.0040,g/mol,,,,,,,
Germacrene,C$_{15}$H$_{24}$,204.35,g/mol,,,,,236.4,$^{\circ}$C,
Nialamide,C$_{16}$H$_{18}$N$_{4}$O$_{2}$,,,,,,,,,
Potassium hexachloroplatinate,K$_{2}$PtCl$_{6}$,485.99,g/mol,250,$^{\circ}$C,3.344,g/cm$^{3}$,,,0.89
Beta-Nitrostyrene,C$_{8}$H$_{7}$NO$_{2}$,,,58,$^{\circ}$C,,,255,$^{\circ}$C,
Landiolol,C$_{25}$H$_{39}$N$_{3}$O$_{8}$,,,,,,,,,
Tetramethylsuccinonitrile,C$_{8}$H$_{12}$N$_{2}$,,,,,,,,,
Lanreotide,C$_{54}$H$_{69}$N$_{11}$O$_{10}$S$_{2}$,,,,,,,,,
O-Anisic acid,C$_{8}$H$_{8}$O$_{3}$,152.15,g/mol,101-103,$^{\circ}$C,,,,,
Dipropylcyclopentylxanthine,C$_{16}$H$_{24}$N$_{4}$O$_{2}$,,,191,$^{\circ}$C,,,,,
Prenol,C$_{5}$H$_{10}$O,86.132,g/mol,-59,$^{\circ}$C,0.848,g/cm$^{3}$,142,$^{\circ}$C,17
Glycerol monostearate,C$_{21}$H$_{42}$O$_{4}$,,,58,$^{\circ}$C,0.97,g/cm$^{3}$,238,$^{\circ}$C,Insoluble
Meticillin,C$_{17}$H$_{20}$N$_{2}$O$_{6}$S,,,,,,,,,
AB-PINACA,C$_{18}$H$_{26}$N$_{4}$O$_{2}$,,,,,,,,,
Topiramate,C$_{12}$H$_{21}$NO$_{8}$S,,,,,,,,,
Ampiroxicam,C$_{20}$H$_{21}$N$_{3}$O$_{7}$S,,,,,,,,,
Racivir,C$_{8}$H$_{10}$FN$_{3}$O$_{3}$S,,,,,,,,,
Ammonium permanganate,NH$_{4}$MnO$_{4}$,136.974,g/mol,,,,,,,8.0
Bromocriptine,C$_{32}$H$_{40}$BrN$_{5}$O$_{5}$,,,,,,,,,
Propylene glycol,C$_{3}$H$_{8}$O$_{2}$,,,-59,$^{\circ}$C,1.036,g/cm$^{3}$,188.2,$^{\circ}$C,Miscible
Tandospirone,C$_{21}$H$_{29}$N$_{5}$O$_{2}$,,,,,,,,,
Cefalotin,C$_{16}$H$_{16}$N$_{2}$O$_{6}$S$_{2}$,,,,,,,,,
Felodipine,C$_{18}$H$_{19}$Cl$_{2}$NO$_{4}$,,,,,,,,,
Taxusin,C$_{28}$H$_{40}$O$_{8}$,,,,,,,,,
Praseodymium(III) chloride,PrCl$_{3}$,247.24,g/mol,786,$^{\circ}$C,4.02,g/cm$^{3}$,1710,$^{\circ}$C,104.0
Cyclopentadienyl allyl palladium,C$_{8}$H$_{10}$Pd,,,60-62,$^{\circ}$C,,,,,
Geranin A,C$_{30}$H$_{24}$O$_{10}$,544.50,g/mol,,,,,,,
Pyrrolizidine,C$_{7}$H$_{13}$N,111.18,g/mol,,,,,,,
Perillartine,C$_{10}$H$_{15}$NO,165.23,g/mol,,,,,,,
Sulfametrole,C$_{9}$H$_{10}$N$_{4}$O$_{3}$S$_{2}$,,,,,,,,,
Polylactic acid,(C$_{3}$H$_{4}$O$_{2}$)$_{n}$,,,150-160,$^{\circ}$C,,,,,Insoluble in water
Acetamiprid,C$_{10}$H$_{11}$ClN$_{4}$,,,98.9,$^{\circ}$C,1.17,g/cm$^{3}$,,,
Ammonium dimolybdate,H$_{8}$N$_{2}$Mo$_{2}$O$_{7}$,,,,,2.97,g/cm$^{3}$,,,
Octyl methoxycinnamate,C$_{18}$H$_{26}$O$_{3}$,,,-25,$^{\circ}$C,1.01,g/cm$^{3}$,198,$^{\circ}$C,
Polyacetylene,[C$_{2}$H$_{2}$]$_{n}$,,,,,,,,,insoluble
Senicapoc,C$_{20}$H$_{15}$F$_{2}$NO,323.34,g/mol,,,,,,,
AM-906,C$_{23}$H$_{34}$O$_{3}$,,,,,,,,,
Cis-3-Hexen-1-ol,C$_{6}$H$_{12}$O,100.159,g/mol,-61,$^{\circ}$C,0.846,g/cm$^{3}$,156.5,$^{\circ}$C,very slightly soluble
Indium(I) bromide,InBr,194.722,g/mol,285,$^{\circ}$C,4.960,g/cm$^{3}$,656,$^{\circ}$C,
Benzimidazole,C$_{7}$H$_{6}$N$_{2}$,,,170-172,$^{\circ}$C,,,,,
Hodgkinsine,C$_{33}$H$_{38}$N$_{6}$,,,,,,,,,
P57 (glycoside),C$_{47}$H$_{74}$O$_{15}$,879.08,g/mol,,,,,,,
Magic acid,HSbF$_{6}$SO$_{3}$,316.82,g/mol,,,,,,,
Simple carbamazepine,C$_{15}$H$_{12}$N$_{2}$O,,,,,,,,,
Monopotassium phosphate,KH$_{2}$PO$_{4}$,136.086,g/mol,252.6,$^{\circ}$C,2.338,g/cm$^{3}$,400,$^{\circ}$C,22.6
Cobaltocene,[Co($\eta^{5}$C$_{5}$H$_{5}$)$_{2}$],189.12,g/mol,,,,,,,not soluble
Bretylium,C11H17BrN1charge+,,,,,,,,,
Kojibiose,C$_{12}$H$_{22}$O$_{11}$,342.30,g/mol,,,,,,,
Terbium(III IV) oxide,Tb$_{4}$O$_{7}$,747.6972,g/mol,,,7.3,g/cm$^{3}$,,,Insoluble
Piperacetam,C$_{11}$H$_{19}$N$_{3}$O$_{2}$,,,,,,,,,
Corticotropin-like intermediate peptide,C$_{112}$H$_{165}$N$_{27}$O$_{36}$,2465.668,g/mol,,,,,,,
Dithranol,C$_{14}$H$_{10}$O$_{3}$,,,,,,,,,
Caesium oxide,Cs$_{2}$O,281.81,g/mol,490,$^{\circ}$C,,,,,reacts violently to form CsOH
Dazomet,C$_{5}$H$_{10}$N$_{2}$S$_{2}$,,,104-105,$^{\circ}$C,,,,,
N-Vinylpyrrolidone,C$_{6}$H$_{9}$NO,,,13-14,$^{\circ}$C,1.043,g/cm$^{3}$,90-92,$^{\circ}$C,
Rhoeadine,C$_{21}$H$_{21}$NO$_{6}$,,,,,1.45,g/cm$^{3}$,,,
Dopastin,C$_{9}$H$_{17}$N$_{3}$O$_{3}$,,,116-119,$^{\circ}$C,,,,,
Disulfur difluoride,S$_{2}$F$_{2}$,102.127,g/mol,,,,,,,
Tert-Amyl chloride,C$_{5}$H$_{11}$Cl,,,-73,$^{\circ}$C,,,85,$^{\circ}$C,
QUCHIC,C$_{25}$H$_{24}$N$_{2}$O$_{2}$,,,,,,,,,
Heme arginate,C$_{40}$H$_{48}$FeN$_{8}$O$^{+2}_{6}$,,,,,,,,,
Salsalate,C$_{14}$H$_{10}$O$_{5}$,,,,,,,,,
Pyr-T,C$_{14}$H$_{18}$N$_{2}$,,,,,,,,,
Phosalone,C$_{12}$H$_{15}$ClNO$_{4}$PS$_{2}$,,,47.5,$^{\circ}$C,,,,,3.05
Glutamic acid,C$_{5}$H$_{9}$NO$_{4}$,,,199,$^{\circ}$C,,,,,7.5
Nascent hydrogen,H,,,,,,,,,Reacts
Volociximab,C$_{6434}$H$_{9942}$N$_{1706}$O$_{2040}$S$_{52}$,,,,,,,,,
Tetraamminecopper(II) sulfate,[Cu(NH$_{3}$)$_{4}$(H$_{2}$O)$_{n}$]SO$_{4}$,245.79,g/mol,,,1.81,g/cm$^{3}$,330,$^{\circ}$C,18.5
Mirtazapine,C$_{17}$H$_{19}$N$_{3}$,,,,,,,,,
Sulfuric acid,H$_{2}$SO$_{4}$,98.079,g/mol,10,$^{\circ}$C,,,337,$^{\circ}$C,miscible
Pyruvic acid,C$_{3}$H$_{4}$O$_{3}$,88.06,g/mol,11.8,$^{\circ}$C,1.250,g/cm$^{3}$,165,$^{\circ}$C,
Diammonium phosphate,(NH$_{4}$)$_{2}$HPO$_{4}$,132.07,g/mol,155,$^{\circ}$C,1.619,g/cm$^{3}$,,,57.5
Epalrestat,C$_{15}$H$_{13}$NO$_{3}$S$_{2}$,319.401,g/mol,210,$^{\circ}$C,,,516.8,$^{\circ}$C,
ADBICA,C$_{20}$H$_{29}$N$_{3}$O$_{2}$,,,,,,,,,
Oxapium iodide,C$_{22}$H$_{34}$INO$_{2}$,471.42,g/mol,,,,,,,
Farnesyl pyrophosphate,C$_{15}$H$_{28}$O$_{7}$P$_{2}$,,,,,,,,,
Ergotamine,C$_{33}$H$_{35}$N$_{5}$O$_{5}$,,,,,,,,,
Acid orange 5,C$_{18}$H$_{14}$N$_{3}$NaO$_{3}$S,375.38,g/mol,,,,,,,
Water blue,C$_{32}$H$_{25}$N$_{3}$O$_{9}$S$_{3}$Na$_{2}$,737.72374,g/mol,,,,,,,
Irinotecan,C33H38N4O6e,,,,,,,,,
Mesitylene,C$_{9}$H$_{12}$,120.19,g/mol,-44.8,$^{\circ}$C,,,164.7,$^{\circ}$C,0.002% (20$^{\circ}$C)
Civetone,C$_{17}$H$_{30}$O,,,31-32,$^{\circ}$C,,,342,$^{\circ}$C,
Phosphorus sesquisulfide,P$_{4}$S$_{3}$,220.093,g/mol,172.5,$^{\circ}$C,,,408,$^{\circ}$C,
Sulfur dibromide,Br$_{2}$S,,,,,,,,,
Cannabidivarin,C$_{19}$H$_{26}$O$_{2}$,,,,,,,,,
Stearidonic acid,C$_{18}$H$_{28}$O$_{2}$,276.40,g/mol,,,,,,,
Sinapyl alcohol,C$_{11}$H$_{14}$O$_{4}$,,,61-65,$^{\circ}$C,,,,,
Sodium thiopental,,,,,,,,,,
Ergometrine,C$_{19}$H$_{23}$N$_{3}$O$_{2}$,,,,,,,,,
Clothianidin,C$_{6}$N$_{5}$H$_{8}$SO$_{2}$Cl,,,179,$^{\circ}$C,,,,,327
Arbekacin,C$_{22}$H$_{44}$N$_{6}$O$_{10}$,,,,,,,,,
Cubebol,C$_{15}$H$_{26}$O,222.37,g/mol,61-62,$^{\circ}$C,,,,,
Torreyanic acid,,,,,,,,,,
Xenon dioxide,XeO$_{2}$,163.29,g/mol,,,,,,,
Mesityl oxide,C$_{6}$H$_{10}$O,,,-53,$^{\circ}$C,0.858,g/cm$^{3}$,129.5,$^{\circ}$C,
Tolperisone,C$_{16}$H$_{23}$NO,,,,,,,,,
Nabazenil,C$_{35}$H$_{55}$NO$_{3}$,,,,,,,,,
Ciclopramine,C$_{18}$H$_{20}$N$_{2}$,,,,,,,,,
Nervonic acid,C$_{24}$H$_{46}$O$_{2}$,366.62,g/mol,42-43,$^{\circ}$C,,,,,
Quinethazone,C$_{10}$H$_{12}$ClN$_{3}$O$_{3}$S,,,,,,,,,
E-6801,C$_{17}$H$_{18}$ClN$_{5}$O$_{2}$S$_{2}$,,,,,,,,,
Pentamethylcyclopentadiene,C$_{10}$H$_{16}$,136.24,g/mol,,,,,55-60,$^{\circ}$C,Sparingly soluble
Adipic acid,C$_{6}$H$_{10}$O$_{4}$,,,152.1,$^{\circ}$C,1.360,g/cm$^{3}$,337.5,$^{\circ}$C,14
Gemopatrilat,C$_{19}$H$_{26}$N$_{2}$O$_{4}$S,,,,,,,,,
Desmethylsertraline,C$_{16}$H$_{15}$Cl$_{2}$N,,,,,,,,,
Chlorbenside,C$_{13}$H$_{10}$Cl$_{2}$S,269.19,g/mol,,,,,,,
Cadaverine,C$_{5}$H$_{14}$N$_{2}$,,,11.83,$^{\circ}$C,,,,,soluble
Hafnium tetrachloride,HfCl$_{4}$,320.302,g/mol,432,$^{\circ}$C,3.89,g/cm$^{3}$,,,decomposes
Cyanidin,C$_{15}$H$_{11}$O$^{+}_{6}$,287.24,g/mol,,,,,,,
Ethyldichloroarsine,C$_{2}$H$_{5}$AsCl$_{2}$,174.8893,g/mol,,,,,75.6,$^{\circ}$C,
Rebeccamycin,C$_{27}$H$_{21}$Cl$_{2}$N$_{3}$O$_{7}$,,,,,,,,,
Ammonium chloride,NH$_{4}$Cl,,,338,$^{\circ}$C,1.5274,g/cm$^{3}$,520,$^{\circ}$C,244
Piceid,C$_{20}$H$_{22}$O$_{8}$,390.384,g/mol,,,,,,,
Triphosgene,C$_{3}$Cl$_{6}$O$_{3}$,296.748,g/mol,80,$^{\circ}$C,1.780,g/cm$^{3}$,206,$^{\circ}$C,Reacts
Davicil,C$_{6}$H$_{3}$Cl$_{4}$NO$_{2}$S,294.970,g/mol,,,,,,,
Triphenylarsine,C$_{18}$H$_{15}$As,,,58,$^{\circ}$C,,,373,$^{\circ}$C,Insoluble
Diphenyl disulfide,C$_{12}$H$_{10}$S$_{2}$,,,61,$^{\circ}$C,,,,,
Cobalt(III) fluoride,CoF$_{3}$,115.928,g/mol,927,$^{\circ}$C,3.88,g/cm$^{3}$,,,reacts
Benzyl salicylate,C$_{14}$H$_{12}$O$_{3}$,,,,,1.17,g/cm$^{3}$,,,
Pentoxyverine,C$_{20}$H$_{31}$NO$_{3}$,,,,,,,,,
Acetoxolone,C$_{32}$H$_{48}$O$_{5}$,512.72,g/mol,,,,,,,
Parahexyl,C$_{22}$H$_{32}$O$_{2}$,,,,,,,,,
Tripalmitin,C$_{51}$H$_{98}$O$_{6}$,,,44.7-67.4,$^{\circ}$C,0.8752,g/cm$^{3}$,315,$^{\circ}$C,Insoluble
Fluoroform,CHF$_{3}$,70.01,g/mol,-155.2,$^{\circ}$C,,,-82.1,$^{\circ}$C,1
Benzilylcholine mustard,C$_{19}$H$_{22}$ClNO$_{3}$,347.836,g/mol,,,,,,,
Trabectedin,C$_{39}$H$_{43}$N$_{3}$O$_{11}$S,,,,,,,,,
L-AP4,C$_{4}$H$_{10}$NO$_{5}$P,,,,,,,,,
Scandium chloride,ScCl$_{3}$,151.31,g/mol,960,$^{\circ}$C,,,,,soluble
Nepicastat,C$_{14}$H$_{15}$F$_{2}$N$_{3}$S,295.35,g/mol,,,,,,,
Bromoacetone,C$_{3}$H$_{5}$BrO,,,-36.5,$^{\circ}$C,1.634,g/cm$^{3}$,137,$^{\circ}$C,
Pirolate,C$_{16}$H$_{15}$N$_{3}$O$_{5}$,,,,,,,,,
Valinomycin,C$_{54}$H$_{90}$N$_{6}$O$_{18}$,1111.32,g/mol,190,$^{\circ}$C,,,,,
Butyltolylquinuclidine,C$_{18}$H$_{27}$N,,,,,,,,,
PD-217 014,,,,,,,,,,
Ethanolamine,C$_{2}$H$_{7}$NO,,,10.3,$^{\circ}$C,1.012,g/cm$^{3}$,170,$^{\circ}$C,Miscible
N-Acetylprocainamide,C$_{15}$H$_{23}$N$_{3}$O$_{2}$,,,,,,,,,
Carbazochrome,C$_{10}$H$_{12}$N$_{4}$O$_{3}$,,,,,,,,,
ATMP,C$_{3}$H$_{12}$NO$_{9}$P$_{3}$,,,200,$^{\circ}$C,1.33,g/cm$^{3}$,,,61
Mercury(I) oxide,Hg$_{2}$O,,,,,,,,,
Nitrourea,CH$_{3}$N$_{3}$O$_{3}$,,,,,,,,,
Montanic acid,C$_{28}$H$_{56}$O$_{2}$,,,90.9,$^{\circ}$C,,,,,Insoluble
ALPHA (psychedelic),,,,,,,,,,
Petunidin,C$_{16}$H$_{13}$O$^{+}_{7}$(Cl$^{-}$),317.27,g/mol,,,,,,,
Ornidazole,C$_{7}$H$_{10}$ClN$_{3}$O$_{3}$,,,,,,,,,
Bacampicillin,C$_{21}$H$_{27}$N$_{3}$O$_{7}$S,,,,,,,,,
Poldine,C21H26NO3charge+,,,,,,,,,
Belinostat,C$_{15}$H$_{14}$N$_{2}$O$_{4}$S,,,,,,,,,
N-Phenethylnordesomorphine,C$_{24}$H$_{27}$NO$_{2}$,,,,,,,,,
Cryptoxanthin,C$_{40}$H$_{56}$O,552.85,g/mol,169,$^{\circ}$C,,,,,
Trimethylsilyl propanoic acid,"C$_{6}$H$_{14}$O$_{2}$Si(acid),C$_{6}$H$_{13}$O$_{2}$Si$^{-}$(anion)",146.26,g/mol,,,,,,,
Chenodeoxycholic acid,C$_{24}$H$_{40}$O$_{4}$,392.57,g/mol,165-167,$^{\circ}$C,,,,,
Pentagastrin,C$_{37}$H$_{49}$N$_{7}$O$_{9}$S,,,,,,,,,
Tolvaptan,C$_{26}$H$_{25}$ClN$_{2}$O$_{3}$,,,,,,,,,
Thapsigargin,C$_{34}$H$_{50}$O$_{12}$,650.76,g/mol,,,,,,,
Deracoxib,C$_{17}$H$_{14}$F$_{3}$N$_{3}$O$_{3}$S,,,,,,,,,
Rhodium(IV) oxide,RhO$_{2}$,134.904,g/mol,1050,$^{\circ}$C,7.2,g/cm$^{3}$,,,
Pitavastatin,C$_{25}$H$_{24}$FNO$_{4}$,,,,,,,,,
TDIQ,C$_{10}$H$_{11}$NO$_{2}$,,,,,,,,,
Phthalylsulfathiazole,C$_{17}$H$_{13}$N$_{3}$O$_{5}$S$_{2}$,,,,,,,,,
Mepiprazole,C$_{16}$H$_{21}$ClN$_{4}$,,,,,,,,,
Peruvoside,C$_{30}$H$_{44}$O$_{9}$,,,,,,,,,
Piprozolin,C$_{14}$H$_{22}$N$_{2}$O$_{3}$S,,,,,,,,,
Amanullinic acid,C$_{39}$H$_{53}$N$_{9}$O$_{13}$S,887.96,g/mol,,,,,,,
Metheptazine,C$_{16}$H$_{23}$NO$_{2}$,,,,,,,,,
Sodium aluminate,NaAlO$_{2}$,81.97,g/mol,1650,$^{\circ}$C,1.5,g/cm$^{3}$,,,soluble
Diazolidinyl urea,C$_{8}$H$_{14}$N$_{4}$O$_{7}$,278.22,g/mol,,,,,,,
Vorozole,C$_{16}$H$_{13}$ClN$_{6}$,,,,,,,,,
Chromium(III) boride,CrB,62.81,g/mol,2050,$^{\circ}$C,6.17,g/cm$^{3}$,,,insoluble
Propyl hexanoate,C$_{9}$H$_{18}$O$_{2}$,,,-68,$^{\circ}$C,,,186,$^{\circ}$C,
Heme B,C$_{34}$H$_{32}$O$_{4}$N$_{4}$Fe,,,,,,,,,
Tribromofluoromethane,CBr$_{3}$F,270.72,g/mol,-73,$^{\circ}$C,,,108,$^{\circ}$C,
Lithocholic acid,C$_{24}$H$_{40}$O$_{3}$,376.57,g/mol,183-188,$^{\circ}$C,,,,,
Capsinolol,C$_{23}$H$_{40}$N$_{2}$O$_{4}$,,,,,,,,,
Nitroethylene,C$_{2}$H$_{3}$NO$_{2}$,,,-55,$^{\circ}$C,,,98.5,$^{\circ}$C,78.9
Muraglitazar,C$_{29}$H$_{28}$N$_{2}$O$_{7}$,,,,,,,,,
Bis(2 4-dinitrophenyl) oxalate,C$_{14}$H$_{6}$N$_{4}$O$_{12}$,,,,,,,605.1,$^{\circ}$C,
Mifepristone,C$_{29}$H$_{35}$NO$_{2}$,,,,,,,,,
Roussin's red salt,Fe$_{2}$N$_{4}$K$_{2}$O$_{4}$S$_{2}$,374.04,g/mol,,,,,,,
Ethyl propionate,C$_{5}$H$_{10}$O$_{2}$,102.1317,g/mol,-73.6,$^{\circ}$C,0.884325,g/cm$^{3}$,98.9,$^{\circ}$C,
Pangamic acid,C$_{10}$H$_{19}$NO$_{8}$,281.26,g/mol,,,,,,,
Pentobarbital,C$_{11}$H$_{18}$N$_{2}$O$_{3}$,,,,,,,,,
Malononitrile,C$_{3}$H$_{2}$N$_{2}$,,,,,,,,,13% (20$^{\circ}$C)
Ranolazine,C$_{24}$H$_{33}$N$_{3}$O$_{4}$,,,,,,,,,
FD&amp,C$_{16}$H$_{11}$N$_{2}$NaO$_{4}$S,,,,,,,,,
Prifinium bromide,,,,,,,,,,
Phosphoribosyl-N-formylglycineamide,C$_{8}$H$_{15}$N$_{2}$O$_{9}$P,314.187,g/mol,,,,,,,
NS-2710,C$_{22}$H$_{20}$N$_{4}$O,,,,,,,,,
Metharbital,C$_{9}$H$_{14}$N$_{2}$O$_{3}$,,,,,,,,,
Patuletin,C$_{16}$H$_{12}$O$_{8}$,332.26,g/mol,,,,,,,
Barnidipine,C$_{27}$H$_{29}$N$_{3}$O$_{6}$,,,,,,,,,
Triphenylmethyl radical,C$_{19}$H$_{15}$,,,,,,,,,
Zirconium(IV) bromide,ZrBr$_{4}$,410.86,g/mol,450,$^{\circ}$C,,,,,reacts with water
Sorbitan monolaurate,C$_{18}$H$_{34}$O$_{6}$,,,,,1.032,g/cm$^{3}$,,,insoluble
Cyclopentobarbital,C$_{12}$H$_{14}$N$_{2}$O$_{3}$,,,,,,,,,
Cobalt(II) oxide,CoO,74.9326,g/mol,1933,$^{\circ}$C,6.44,g/cm$^{3}$,,,insoluble in water
Permanganic acid,HMnO$_{4}$,,,,,,,,,
J-113 397,,,,,,,,,,
Methylphenobarbital,C$_{13}$H$_{14}$N$_{2}$O$_{3}$,,,,,,,,,
Pentamethylbenzene,C$_{11}$H$_{16}$,,,54.4,$^{\circ}$C,0.917,g/cm$^{3}$,232,$^{\circ}$C,
Vinyl acetate,C$_{4}$H$_{6}$O$_{2}$,86.09,g/mol,-93,$^{\circ}$C,0.934,g/cm$^{3}$,72.7,$^{\circ}$C,
Tin(II) hydroxide,Sn(OH)$_{2}$,152.73,g/mol,,,,,,,
Chlorodimethylsilane,(CH$_{3}$)$_{2}$SiHCl,94.62,g/mol,-111,$^{\circ}$C,,,34.7,$^{\circ}$C,
Bemotrizinol,C$_{38}$H$_{49}$N$_{3}$O$_{5}$,627.81,g/mol,,,,,,,
Forskolin,C$_{22}$H$_{34}$O$_{7}$,,,,,,,,,
Ortetamine,C$_{10}$H$_{15}$N,,,,,,,,,
Manoalide,C$_{25}$H$_{36}$O$_{5}$,,,,,,,,,
Calcium sulfite,CaSO$_{3}$,120.17,g/mol,600,$^{\circ}$C,,,,,0.0043
Tetraethyl pyrophosphate,C$_{8}$H$_{20}$O$_{7}$P$_{2}$,,,,,,,,,miscible
CGP-7930,C$_{19}$H$_{32}$O$_{2}$,,,,,,,,,
Temazepam,C$_{16}$H$_{13}$ClN$_{2}$O$_{2}$,,,,,,,,,
Idanpramine,C$_{24}$H$_{29}$N$_{3}$O$_{4}$,,,,,,,,,
Singlet oxygen,O$_{2}$,,,,,,,,,Reacts
Aluminium nitride,AlN,40.9882,g/mol,2200,$^{\circ}$C,3.260,g/cm$^{3}$,2517,$^{\circ}$C,"reacts (powder), insoluble (monocrystalline)"
Budiodarone,C$_{27}$H$_{31}$I$_{2}$NO$_{5}$,,,,,,,,,
Ibandronic acid,,,,,,,,,,
Sterigmatocystin,C$_{18}$H$_{12}$O$_{6}$,324.28,g/mol,,,,,,,
Iridin,C$_{24}$H$_{26}$O$_{13}$,522.45,g/mol,208,$^{\circ}$C,,,,,
Spinorphin,C$_{45}$H$_{64}$N$_{8}$O$_{10}$,877.037,g/mol,,,,,,,
Ethyl isopropyl ketone,C$_{6}$H$_{12}$O,100.16,g/mol,,,0.811,g/cm$^{3}$,113,$^{\circ}$C,
Hexanitrodiphenylamine,C$_{12}$H$_{5}$N$_{7}$O$_{12}$,,,,,,,,,
Mosapride,C$_{21}$H$_{25}$ClFN$_{3}$O$_{3}$,,,,,,,,,
Previtamin D3,C$_{27}$H$_{44}$O,,,,,,,,,
JWH-149,C$_{26}$H$_{27}$NO,,,,,,,,,
Fluvalinate,C$_{26}$H$_{22}$ClF$_{3}$N$_{2}$O$_{3}$,,,,,,,,,
Iron(II) citrate,C$_{6}$H$_{6}$FeO$_{7}$,,,350,$^{\circ}$C,,,,,Slightly Soluble
SDB-006,C$_{21}$H$_{24}$N$_{2}$O,,,,,,,,,
Uranyl zinc acetate,ZnUO$_{2}$(CH$_{3}$COO)$_{4}$,571.59,g/mol,,,,,,,
Yunnanin A,C$_{34}$H$_{41}$N$_{7}$O$_{8}$,,,,,,,,,
Metaraminol,C$_{9}$H$_{13}$NO$_{2}$,,,,,,,,,
Cefpiramide,C$_{25}$H$_{24}$N$_{8}$O$_{7}$S$_{2}$,,,,,,,,,
Octadecane,C$_{18}$H$_{38}$,,,28-30,$^{\circ}$C,,,317,$^{\circ}$C,
Tripelennamine,C$_{16}$H$_{21}$N$_{3}$,,,,,,,,,
Sulfur tetrafluoride,SF$_{4}$,108.07,g/mol,-121.0,$^{\circ}$C,,,-38,$^{\circ}$C,reacts
Nalbuphine,C$_{21}$H$_{27}$NO$_{4}$,,,,,,,,,
Ingenol mebutate,,,,,,,,,,
Cefroxadine,C$_{16}$H$_{19}$N$_{3}$O$_{5}$S,,,,,,,,,
ABCN,C$_{14}$H$_{20}$N$_{4}$,,,114-118,$^{\circ}$C,,,,,
BU09059,C$_{28}$H$_{37}$N$_{3}$O$_{5}$,,,,,,,,,
Flexuosol A,C$_{56}$H$_{42}$O$_{12}$,,,,,,,,,
Fluocortin,C$_{22}$H$_{27}$FO$_{5}$,,,,,,,,,
Metacycline,C$_{22}$H$_{22}$N$_{2}$O$_{8}$,,,,,,,,,
Glucogallin,C$_{13}$H$_{16}$O$_{10}$,,,,,,,,,
Benzenesulfonic acid,C$_{6}$H$_{6}$O$_{3}$S,,,,,1.32,g/cm$^{3}$,190,$^{\circ}$C,Soluble
Pegfilgrastim,C845H1343N223O243S9+PEG,,,,,,,,,
Anitrazafen,C$_{18}$H$_{17}$N$_{3}$O$_{2}$,,,,,,,,,
Polyoxymethylene,(CH$_{2}$O)$_{n}$,,,,,,,,,
Cyclopentadienyliron dicarbonyl iodide,C$_{7}$H$_{5}$FeIO$_{2}$,,,119,$^{\circ}$C,,,,,
ThioTEPA,C$_{6}$H$_{12}$N$_{3}$PS,,,,,,,,,
Juncusol,C$_{18}$H$_{18}$O$_{2}$,266.33,g/mol,,,,,,,
Sec-Butyl acetate,C$_{6}$H$_{12}$O$_{2}$,116.16,g/mol,-99,$^{\circ}$C,,,112,$^{\circ}$C,0.80
N-Methylpseudoephedrine,C$_{11}$H$_{17}$NO,,,29-31,$^{\circ}$C,,,,,
Clemastine,C$_{21}$H$_{26}$ClNO,,,,,,,,,
Antimony trichloride,SbCl$_{3}$,,,73.4,$^{\circ}$C,3.14,g/cm$^{3}$,223.5,$^{\circ}$C,601.1
Vernolepin,C$_{15}$H$_{16}$O$_{5}$,,,179-180,$^{\circ}$C,,,,,
Isoliquiritigenin,C$_{15}$H$_{12}$O$_{4}$,256.25,g/mol,,,,,,,
Glutathione,C$_{10}$H$_{17}$N$_{3}$O$_{6}$S,,,195,$^{\circ}$C,,,,,Freely soluble
Dicopper chloride trihydroxide,Cu$_{2}$(OH)$_{3}$Cl,,,,,3.5,g/cm$^{3}$,,,"Insoluble in water, pH 6.9"
Ammonium sulfide,(NH$_{4}$)$_{2}$S,68.154,g/mol,,,0.997,g/cm$^{3}$,,,128.1
Calcium chlorate,Ca(ClO$_{3}$)$_{2}$,206.98,g/mol,325,$^{\circ}$C,2.71,g/cm$^{3}$,,,209
Alnetin,C$_{18}$H$_{16}$O$_{6}$,,,,,,,,,
Arachidonic acid,C$_{20}$H$_{32}$O$_{2}$,,,-49,$^{\circ}$C,0.922,g/cm$^{3}$,169,$^{\circ}$C,
Thorium(IV) chloride,ThCl$_{4}$,373.849,g/mol,770,$^{\circ}$C,,,921,$^{\circ}$C,
Heptabarb,C$_{13}$H$_{18}$N$_{2}$O$_{3}$,,,,,,,,,
Octadecyltrichlorosilane,C$_{18}$H$_{37}$Cl$_{3}$Si,,,,,,,223,$^{\circ}$C,
Clazolam,C$_{18}$H$_{17}$ClN$_{2}$O,,,,,,,,,
Brilliant Blue FCF,C$_{37}$H$_{34}$N$_{2}$Na$_{2}$O$_{9}$S$_{3}$,,,,,,,,,
Lithium peroxide,Li$_{2}$O$_{2}$,45.881,g/mol,195,$^{\circ}$C,2.31,g/cm$^{3}$,,,soluble
Magaldrate,chemical_formulaAlMg$_{2}$(OH)$_{7}$$\cdot$H$_{2}$O,,,,,,,,,
A-372159,C$_{24}$H$_{27}$F$_{3}$N$_{2}$O$_{2}$,,,,,,,,,
Manganese(III) acetate,C$_{6}$H$_{9}$MnO$_{6}$.2H$_{2}$O,268.13,g/mol,,,,,,,
Codeinone,C$_{4}$H$_{8}$,297.35,g/mol,,,,,,,
Chloroacetic acid,C$_{2}$H$_{3}$ClO$_{2}$,,,63,$^{\circ}$C,,,189.3,$^{\circ}$C,85.8
Efaroxan,C$_{13}$H$_{16}$N$_{2}$O,,,,,,,,,
Methylenomycin B,C$_{8}$H$_{10}$O,,,,,,,,,