Name,formula,Property Molar Mass,Property Molar Mass units,Property Melting Point,Property Melting Point units,Property Density,Property Density units,Property Boiling Point,Property Boiling Point units,Property Solubility
Chavicol,C$_{9}$H$_{10}$O,134.18,g/mol,16,$^{\circ}$C,1.020,g/cm$^{3}$,238,$^{\circ}$C,
Propacetamol,C$_{14}$H$_{20}$N$_{2}$O$_{3}$,,,,,,,,,
Ciprofloxacin,C$_{17}$H$_{18}$FN$_{3}$O$_{3}$,,,,,,,,,
Strontium oxalate,SrC$_{2}$O$_{4}$,175.64,g/mol,,,2.08,g/cm$^{3}$,Decomposes above 200,$^{\circ}$C,Insoluble in water
Rhizoxin,C$_{35}$H$_{47}$NO$_{9}$,625.749,g/mol,,,,,,,
Muldamine,C$_{29}$H$_{47}$NO$_{3}$,,,,,,,,,
Carvonic acid,C$_{10}$H$_{12}$O$_{3}$,180.20,g/mol,,,,,,,
Ditolylguanidine,C$_{15}$H$_{17}$N$_{3}$,,,,,,,,,
SB-205 384,,,,,,,,,,
Zymosan,(C$_{6}$H$_{10}$O$_{5}$)$_{x}$,,,,,,,,,
Piperine,C$_{17}$H$_{19}$NO$_{3}$,,,130,$^{\circ}$C,1.193,g/cm$^{3}$,,,
Enoximone,C$_{12}$H$_{12}$N$_{2}$O$_{2}$S,,,,,,,,,
Ro5-2904,C$_{16}$H$_{11}$F$_{3}$N$_{2}$O,,,,,,,,,
Diethyl tartrate,C$_{8}$H$_{14}$O$_{6}$,,,,,,,280,$^{\circ}$C,low
Levomethamphetamine,C$_{10}$H$_{15}$N,,,,,,,,,
Cefazaflur,C$_{13}$H$_{13}$F$_{3}$N$_{6}$O$_{4}$S$_{3}$,,,,,,,,,
Phenothiazine,C$_{12}$H$_{9}$NS,199.27,g/mol,185,$^{\circ}$C,,,371,$^{\circ}$C,
Chlorosulfonyl isocyanate,CNClO$_{3}$S,141.53,g/mol,-44,$^{\circ}$C,1.626,g/cm$^{3}$,107,$^{\circ}$C,
Acetrizoic acid,,,,,,,,,,
Probarbital,C$_{9}$H$_{14}$N$_{2}$O$_{3}$,,,,,,,,,
Myclobutanil,C$_{15}$H$_{17}$N$_{4}$Cl,,,63,$^{\circ}$C,,,202,$^{\circ}$C,142
Barbital,C$_{8}$H$_{12}$N$_{2}$O$_{3}$,,,,,,,,,
Iodobenzene,C$_{6}$H$_{5}$I,204.01,g/mol,-29,$^{\circ}$C,1.823,g/cm$^{3}$,188,$^{\circ}$C,Insoluble
Carfentanil,C$_{24}$H$_{30}$N$_{2}$O$_{3}$,,,,,,,,,
Rontalizumab,C$_{6486}$H$_{9990}$N$_{1722}$O$_{2026}$S$_{44}$,,,,,,,,,
Lead(II) chromate,PbCrO$_{4}$,323.2,g/mol,844,$^{\circ}$C,,,,,negligible
Chromate and dichromate,CrO4$^{2-}$andCr2O7$^{2-}$,,,,,,,,,
Candoxatril,C$_{29}$H$_{41}$NO$_{7}$,,,,,,,,,
Toxiferine,C$_{40}$H$_{46}$N$_{4}$O$_{2}$,,,,,,,,,
ST-1936,C$_{13}$H$_{17}$ClN$_{2}$,,,,,,,,,
Borazine,B$_{3}$H$_{6}$N$_{3}$,80.50,g/mol,-58,$^{\circ}$C,0.81,g/cm$^{3}$,53,$^{\circ}$C,
Bacillithiol,C$_{13}$H$_{22N$_{2}$}$O$_{10}$S,398.39,g/mol,,,,,,,
Vesamicol,C$_{17}$H$_{25}$NO,,,,,,,,,
Dihydropyran,C$_{5}$H$_{8}$O,,,-70,$^{\circ}$C,,,86,$^{\circ}$C,
Tiglyl-CoA,C$_{26}$H$_{42}$N$_{7}$O$_{17}$P$_{3}$S,849.63,g/mol,,,,,,,
Methyprylon,C$_{10}$H$_{17}$NO$_{2}$,,,,,,,,,
Bisoxatin,C$_{20}$H$_{15}$NO$_{4}$,,,,,,,,,
Nitrogen pentafluoride,NF$_{5}$,108.999,g/mol,,,,,,,
MADAM-6,C$_{12}$H$_{17}$NO$_{2}$,207.269,g/mol,,,,,,,
Grepafloxacin,C$_{19}$H$_{22}$FN$_{3}$O$_{3}$,,,,,,,,,
Biapenem,C$_{15}$H$_{18}$N$_{4}$O$_{4}$S,,,,,,,,,
Sobrerol,C$_{10}$H$_{18}$O$_{2}$,,,130-132,$^{\circ}$C,,,270-271,$^{\circ}$C,
Selenic acid,H$_{2}$SeO$_{4}$,144.9734,g/mol,58,$^{\circ}$C,,,260,$^{\circ}$C,130
Prostaglandin D2,C$_{20}$H$_{32}$O$_{5}$,352.465,g/mol,,,,,,,
Etafedrine,C$_{12}$H$_{19}$NO,,,,,,,,,
Imipraminoxide,C$_{19}$H$_{24}$N$_{2}$O,,,,,,,,,
Isorhapontin,C$_{21}$H$_{24}$O$_{9}$,420.41,g/mol,,,,,,,
Titanium(III) oxide,Ti$_{2}$O$_{3}$,143.76,g/mol,2130,$^{\circ}$C,4.49,g/cm$^{3}$,,,insoluble
Repaglinide,C$_{27}$H$_{36}$N$_{2}$O$_{4}$,,,,,,,,,
Ermanin,C$_{17}$H$_{14}$O$_{6}$,314.28,g/mol,,,,,,,
Arsenamide,C$_{11}$H$_{12}$AsNO$_{5}$S$_{2}$,377.27,g/mol,,,,,,,
Magnesium iron hexahydride,Mg$_{2}$FeH$_{6}$,,,,,2.74,g/cm$^{3}$,,,
Mitotane,C$_{14}$H$_{10}$Cl$_{4}$,,,,,,,,,
Etodolac,C$_{17}$H$_{21}$NO$_{3}$,,,145,$^{\circ}$C,,,,,3.92e-02
UR-AK49,C$_{16}$H$_{27}$N$_{5}$O,,,,,,,,,
Torasemide,C$_{16}$H$_{20}$N$_{4}$O$_{3}$S,,,,,,,,,
Pentyl hexanoate,C$_{11}$H$_{22}$O$_{2}$,186.291,g/mol,,,,,226,$^{\circ}$C,
Chlorophyll a,C$_{55}$H$_{72}$MgO$_{5}$N$_{4}$,,,152.3,$^{\circ}$C,1.079,g/cm$^{3}$,,,Insoluble
Vecuronium bromide,,,,,,,,,,
Phenanthroline,C$_{12}$H$_{8}$N$_{2}$,180.21,g/mol,117,$^{\circ}$C,1.31,g/cm$^{3}$,,,
Dichlorodiphenyldichloroethane,C$_{14}$H$_{10}$Cl$_{4}$,,,109.5,$^{\circ}$C,,,350,$^{\circ}$C,0.09
Yttrium barium copper oxide,YBa$_{2}$Cu$_{3}$O$_{7}$,666.19,g/mol,,,,,,,
Aluminium carbide,Al$_{4}$C$_{3}$,143.95853,g/mol,2200,$^{\circ}$C,2.36,g/cm$^{3}$,decomposes at 1400,$^{\circ}$C,decomposes
Azidomorphine,C$_{17}$H$_{20}$N$_{4}$O$_{2}$,,,,,,,,,
Cytisine,C$_{11}$H$_{14}$N$_{2}$O,190.24,g/mol,152-153,$^{\circ}$C,,,218,$^{\circ}$C,
Furan,C$_{4}$H$_{4}$O,,,-85.6,$^{\circ}$C,,,31.3,$^{\circ}$C,
Garbanzol,C$_{15}$H$_{12}$O$_{5}$,272.25,g/mol,,,,,,,
Pentaborane(11),B$_{5}$H,,,-123,$^{\circ}$C,,,63,$^{\circ}$C,
Indigo carmine,C$_{16}$H$_{8}$N$_{2}$Na$_{2}$O$_{8}$S$_{2}$,466.36,g/mol,>300,$^{\circ}$C,,,,,10
SB-216641,C$_{28}$H$_{30}$N$_{4}$O$_{4}$,,,,,,,,,
Epicillin,C$_{16}$H$_{21}$N$_{3}$O$_{4}$S,,,,,,,,,
Tetra-n-butylammonium fluoride,(C$_{4}$H$_{9}$)$_{4}$NF,261.46,g/mol,58-60,$^{\circ}$C,,,,,
Sodium phosphide,Na$_{3}$P,99.943,g/mol,650,$^{\circ}$C,1.74,g/cm$^{3}$,,,hydrolysis
Valofane,C$_{10}$H$_{14}$N$_{2}$O$_{4}$,,,,,,,,,
Bis(dinitrogen)bis(1 2-bis(diphenylphosphino)ethane)molybdenum(0),C$_{52}$H$_{48}$MoN$_{4}$P$_{4}$,,,,,,,,,
Galantamine,C$_{17}$H$_{21}$NO$_{3}$,,,,,,,,,
Lonidamine,C$_{15}$H$_{10}$Cl$_{2}$N$_{2}$O$_{2}$,,,,,,,,,
Tetrachloro-m-xylene,C$_{8}$H$_{6}$Cl$_{4}$,,,,,,,,,
Poly(hexamethylene carbonate),(C$_{7}$H$_{12}$O$_{3}$)$_{n}$,,,,,,,,,
Reinecke's salt,C$_{4}$H$_{13.33}$N$_{7}$O$_{0.66}$CrS$_{4}$,354.42,g/mol,270,$^{\circ}$C,1.49,g/cm$^{3}$,,,soluble in hot water
Gemtuzumab ozogamicin,C$_{6}$H$_{14}$O$_{6}$S$_{2}$,,,,,,,,,
Treprostinil,C$_{23}$H$_{34}$O$_{5}$,,,,,,,,,
Cortisone,C$_{21}$H$_{28}$O$_{5}$,,,220,$^{\circ}$C,,,,,
Trazium,C$_{17}$H$_{13}$ClN$_{3}$O,,,,,,,,,
Dimethyldioxirane,C$_{3}$H$_{6}$O$_{2}$,74.08,g/mol,,,,,,,
Cadmium chloride,CdCl$_{2}$,,,568,$^{\circ}$C,4.047,g/cm$^{3}$,964,$^{\circ}$C,Hemipentahydrate:
Oxazoline,C$_{3}$H$_{5}$NO,,,,,,,98,$^{\circ}$C,
Silver telluride,Ag$_{2}$Te,341.3364,g/mol,955,$^{\circ}$C,8.318,g/cm$^{3}$,,,
Metazocine,C$_{15}$H$_{21}$NO,,,,,,,,,
Furfuryl alcohol,C$_{5}$H$_{6}$O$_{2}$,98.10,g/mol,-29,$^{\circ}$C,1.128,g/cm$^{3}$,170,$^{\circ}$C,miscible
Foscarnet,CH$_{3}$O$_{5}$P,,,,,,,,,
Caramiphen,C$_{18}$H$_{27}$NO$_{2}$,,,,,,,,,
Mephenytoin,C$_{12}$H$_{14}$N$_{2}$O$_{2}$,,,,,,,,,
Hydromorphinol,C$_{17}$H$_{21}$NO$_{4}$,,,,,,,,,
Mezerein,C$_{38}$H$_{38}$O$_{10}$,,,,,,,,,
Phenoxymethylpenicillin,C$_{16}$H$_{18}$N$_{2}$O$_{5}$S,,,,,,,,,
Mebutamate,C$_{10}$H$_{20}$N$_{2}$O$_{4}$,,,,,,,,,
Methyl dihydrojasmonate,C$_{13}$H$_{22}$O$_{3}$,,,,,,,110,$^{\circ}$C,
Bis-(2 4 5-trichloro-6-(pentyloxycarbonyl)phenyl)oxalate,C$_{26}$H$_{24}$Cl$_{6}$O$_{8}$,,,188-192,$^{\circ}$C,,,,,
Brofaromine,C$_{14}$H$_{16}$BrNO$_{2}$,,,,,,,,,
Imiprothrin,C$_{17}$H$_{22}$N$_{2}$O$_{4}$,,,,,,,,,
Procyanidin B5,C$_{30}$H$_{26}$O$_{12}$,578.52,g/mol,,,,,,,
Pigment Red 178,C$_{48}$H$_{26}$N$_{6}$O$_{4}$,,,,,,,,,
Magnesium stearate,Mg(C$_{18}$H$_{35}$O$_{2}$)$_{2}$,591.27,g/mol,88.5,$^{\circ}$C,1.026,g/cm$^{3}$,,,0.003
Tungsten dichloride dioxide,WO$_{2}$Cl$_{2}$,286.749,g/mol,265,$^{\circ}$C,,,,,decomposes
Benmoxin,C$_{15}$H$_{16}$N$_{2}$O,,,,,,,,,
Nitrocellulose,C$_{6}$H$_{9}$(NO$_{2}$)O$_{5}$,,,160-170,$^{\circ}$C,,,,,
Amfecloral,C$_{11}$H$_{12}$Cl$_{3}$N,,,,,,,,,
Lacosamide,C$_{13}$H$_{18}$N$_{2}$O$_{3}$,,,,,,,,,
SCH-58261,C$_{18}$H$_{15}$N$_{7}$O,,,,,,,,,
Tetraethyllead,C$_{8}$H$_{20}$Pb,,,-136,$^{\circ}$C,,,84,$^{\circ}$C,0.00002% (20$^{\circ}$C)
TAS-108,C$_{39}$H$_{55}$NO$_{10}$,,,,,,,,,
Raclopride,C$_{15}$H$_{20}$Cl$_{2}$N$_{2}$O$_{3}$,,,,,,,,,
Cycloheximide,C$_{15}$H$_{23}$NO$_{4}$,,,119.5,$^{\circ}$C,,,,,
VUF-6002,C$_{13}$H$_{15}$ClN$_{4}$O,,,,,,,,,
Calcium inosinate,C$_{10}$H$_{11}$CaN$_{4}$O$_{8}$P(xH$_{2}$O),386.19,g/mol,,,,,,,sparingly
Quercetin 3-O-sulfate,C$_{15}$H$_{10}$O$_{10}$S,,,,,,,,,
Procyanidin A1,C$_{30}$H$_{24}$O$_{12}$,,,,,,,,,
Pirinixic acid,,,,,,,,,,
N-Acetylneuraminic acid,C$_{11}$H$_{19}$NO$_{9}$,309.273,g/mol,186,$^{\circ}$C,,,,,
Bromochlorofluoromethane,CHBrClF,,,,,,,,,
Hyodeoxycholic acid,C$_{24}$H$_{40}$O$_{4}$,392.58,g/mol,200-201,$^{\circ}$C,,,,,
Para-Ethoxyamphetamine,C$_{11}$H$_{17}$NO,,,,,,,,,
Triosmium dodecacarbonyl,C$_{12}$O$_{12}$Os$_{3}$,906.81,g/mol,224,$^{\circ}$C,3.48,g/cm$^{3}$,,,
Cathinone,C$_{9}$H$_{11}$NO,,,,,,,,,
Ceftiofur,C$_{19}$H$_{17}$N$_{5}$O$_{7}$S$_{3}$,,,,,,,,,
Prontosil,C$_{12}$H$_{13}$N$_{5}$O$_{2}$S,,,,,,,,,
Bucladesine,C$_{18}$H$_{23}$N$_{5}$NaO$_{8}$P,,,,,,,,,
Polystyrene,(C$_{8}$H$_{8}$)$_{n}$,,,,,0.96-1.04,g/cm$^{3}$,,,
Bromine dioxide,BrO$_{2}$,111.903,g/mol,,,,,,,
Palladium(II) fluoride,PdF$_{2}$,,,952,$^{\circ}$C,,,,,reacts with water
Progabide,C$_{17}$H$_{16}$ClFN$_{2}$O$_{2}$,,,,,,,,,
VCHSR,C$_{24}$H$_{23}$Cl$_{3}$N$_{2}$,,,,,,,,,
Cotinine,C$_{10}$H$_{12}$N$_{2}$O,,,,,,,,,
Veronicastroside,C$_{27}$H$_{30}$O$_{15}$,594.52,g/mol,,,,,,,
Auranthine,C$_{19}$H$_{14}$N$_{4}$O$_{2}$,,,,,,,,,
Niobium nitride,NbN,106.91,g/mol,2573,$^{\circ}$C,8.470,g/cm$^{3}$,,,reacts to form ammonia
Dextroamphetamine,C$_{18}$H$_{22}$O$_{2}$,,,,,0.913,g/cm$^{3}$,201.5,$^{\circ}$C,20
Tetrachloroethylene,C$_{2}$Cl$_{4}$,,,-19,$^{\circ}$C,1.622,g/cm$^{3}$,121.1,$^{\circ}$C,0.15
Mucobromic acid,C$_{4}$H$_{2}$Br$_{2}$O$_{3}$,,,122,$^{\circ}$C,,,619.7,$^{\circ}$C,
Emetine,C$_{29}$H$_{40}$N$_{2}$O$_{4}$,,,,,,,,,
Ciprefadol,C$_{19}$H$_{27}$NO,,,,,,,,,
Clentiazem,C$_{22}$H$_{25}$ClN$_{2}$O$_{4}$S,,,,,,,,,
Casuarinin,C$_{41}$H$_{28}$O$_{26}$,936.64,g/mol,,,,,,,
Androstadienol,C$_{19}$H$_{28}$O,,,,,,,,,
Hibifolin,C$_{21}$H$_{18}$O$_{14}$,494.36,g/mol,,,,,,,
Stampidine,C$_{20}$H$_{23}$BrN$_{3}$O$_{8}$P,,,,,,,,,
Reposal,C$_{14}$H$_{18}$N$_{2}$O$_{3}$,,,,,,,,,
Tenoxicam,C$_{13}$H$_{11}$N$_{3}$O$_{4}$S$_{2}$,,,,,,,,,
Citrazinic acid,C$_{6}$H$_{5}$NO$_{4}$,155.11,g/mol,,,,,,,"Slightly, with hydrolysis"
Robinin,C$_{33}$H$_{40}$O$_{19}$,740.66,g/mol,,,,,,,
Grazoprevir,C$_{38}$H$_{50}$N$_{6}$O$_{9}$S,,,,,,,,,
Copper hydride,HCu,,,,,,,,,
Eudesmic acid,C$_{10}$H$_{12}$O$_{5}$,,,,,,,,,
Hexoprenaline,C$_{22}$H$_{32}$N$_{2}$O$_{6}$,,,,,,,,,
Sovaprevir,chemical_formulaC$_{43}$H$_{53}$N$_{5}$O$_{8}$S,,,,,,,,,
Chrysanthemin,"C$_{21}$H$_{21}$O$_{11}^{+}$,Cl$^{-}$",484.83,g/mol,,,,,,,
Fluorescamine,C$_{17}$H$_{10}$O$_{4}$,278.26,g/mol,153-157,$^{\circ}$C,,,,,
Diphenhydramine,C$_{17}$H$_{21}$NO,,,,,,,,,
Oxyphenisatine,C$_{20}$H$_{15}$NO$_{3}$,,,,,,,,,
Hafnium(IV) oxide,HfO$_{2}$,210.49,g/mol,2758,$^{\circ}$C,,,5400,$^{\circ}$C,insoluble
Magnesium benzoate,C$_{14}$H$_{10}$MgO$_{4}$,266.53,g/mol,,,,,,,
Desmopressin,C$_{46}$H$_{64}$N$_{14}$O$_{12}$S$_{2}$,,,,,,,,,
Melacacidin,C$_{15}$H$_{14}$O$_{7}$,306.26,g/mol,,,,,,,
CLD chromophore,C$_{31}$H$_{32}$N$_{4}$O,,,,,,,,,
Quinaprilat,C$_{23}$H$_{26}$N$_{2}$O$_{5}$,,,,,,,,,
Almotriptan,C$_{17}$H$_{25}$N$_{3}$O$_{2}$S,,,,,,,,,
Iguratimod,C$_{17}$H$_{14}$N$_{2}$O$_{6}$S,,,,,,,,,
Ammonium bromide,NH$_{4}$Br,97.94,g/mol,235,$^{\circ}$C,2.429,g/cm$^{3}$,452,$^{\circ}$C,60.6
Aminothiazole,C$_{3}$H$_{4}$N$_{2}$S,,,86-89,$^{\circ}$C,,,117,$^{\circ}$C,100
Ononin,C$_{22}$H$_{22}$O$_{9}$,,,,,,,,,
Diethyl phenylmalonate,C$_{13}$H$_{16}$O$_{4}$,,,16.5,$^{\circ}$C,1.096,g/cm$^{3}$,170-172,$^{\circ}$C,
Thenoyltrifluoroacetone,C$_{8}$H$_{5}$F$_{3}$O$_{2}$S,,,40,$^{\circ}$C,,,96,$^{\circ}$C,
Lead selenide,PbSe,286.16,g/mol,1078,$^{\circ}$C,,,,,
Benzyl potassium,C$_{7}$H$_{7}$K,,,,,,,,,
Imidazole-1-sulfonyl azide,C$_{3}$H$_{3}$N$_{5}$O$_{2}$S,,,,,,,,,
Diflorasone,C$_{26}$H$_{32}$F$_{2}$O$_{7}$,,,,,,,,,
Phthalane,C$_{8}$H$_{8}$O,,,,,,,,,
Levomepromazine,C$_{19}$H$_{24}$N$_{2}$OS,,,,,,,,,
Sulisobenzone,C$_{14}$H$_{12}$O$_{6}$S,308.31,g/mol,145,$^{\circ}$C,,,,,1
Thiirane,C$_{2}$H$_{4}$S,,,-109,$^{\circ}$C,,,,,
Hernandulcin,C$_{15}$H$_{24}$O$_{2}$,236.35,g/mol,,,,,,,
Di-tert-butyl peroxide,C$_{8}$H$_{18}$O$_{2}$,,,-40,$^{\circ}$C,0.796,g/cm$^{3}$,109,$^{\circ}$C,
Ebastine,C$_{32}$H$_{39}$NO$_{2}$,,,,,,,,,
Phosphotungstic acid,H$_{3}$PW$_{12}$O$_{40}$,2880.2,g/mol,89,$^{\circ}$C,,,,,
Fenoverine,C$_{26}$H$_{15}$N$_{3}$O$_{3}$S,,,,,,,,,
Ampyrone,C$_{11}$H$_{13}$N$_{3}$O,203.24,g/mol,106-110,$^{\circ}$C,,,309,$^{\circ}$C,
Monomagnesium phosphate,MgH$_{4}$P$_{2}$O$_{8}$,,,,,,,,,
Chloral hydrate,C$_{2}$H$_{3}$Cl$_{3}$O$_{2}$,,,57,$^{\circ}$C,1.9081,g/cm$^{3}$,98,$^{\circ}$C,very soluble
Perfluorotripentylamine,C$_{15}$F$_{33}$N,,,,,,,215,$^{\circ}$C,<5
WIN 54 461,,,,,,,,,,
Sodium orthovanadate,Na$_{3}$VO$_{4}$,183.908,g/mol,858,$^{\circ}$C,,,,,22.17
Chlorethoxyfos,C$_{6}$H$_{11}$Cl$_{4}$O$_{3}$PS,336.00,g/mol,,,,,,,
Zinc chloride hydroxide monohydrate,Zn$_{5}$(OH)$_{8}$Cl$_{2}$.H$_{2}$O,,,,,3.3,g/cm$^{3}$,,,"Insoluble in water, pH 6.9"
Calcium hexaboride,CaB$_{6}$,104.94,g/mol,2235,$^{\circ}$C,2.45,g/cm$^{3}$,,,insoluble
Tungsten(IV) fluoride,MgC$_{2}$O$_{4}$MgC$_{2}$O$_{4}$.2H$_{2}$O(Dihydrate),259.8336128,g/mol,,,,,,,
Ranbezolid,C$_{14}$H$_{17}$N$_{5}$,,,,,,,,,
Tilisolol,C$_{17}$H$_{24}$N$_{2}$O$_{3}$,,,,,,,,,
Potassium hexafluoronickelate(IV),K$_{2}$NiF$_{6}$,,,,,,,,,
Tramadol,C$_{16}$H$_{25}$NO$_{2}$,,,,,,,,,
Bemesetron,C$_{15}$H$_{17}$Cl$_{2}$NO$_{2}$,,,,,,,,,
Novaluron,C$_{21}$H$_{26}$FNO$_{3}$,,,178,$^{\circ}$C,(22 C) 1.560,g/cm$^{3}$,,,3x10$^{-6}$
Glafenine,C$_{19}$H$_{17}$ClN$_{2}$O$_{4}$,,,,,,,,,
Tampramine,C$_{27}$H$_{28}$N$_{4}$O$_{4}$,,,,,,,,,
Fludeoxyglucose (18F),C$_{6}$H$^{18}_{11}$FO$_{5}$,,,170,$^{\circ}$C,,,,,
Osladin,C$_{45}$H$_{74}$O$_{17}$,,,202-204,$^{\circ}$C,,,,,Low in water. Soluble in ethanol.
Vestipitant,C$_{23}$H$_{21}$F$_{10}$N$_{3}$O,,,,,,,,,
Emepronium bromide,,,,,,,,,,
Glibornuride,C$_{18}$H$_{26}$N$_{2}$O$_{4}$S,366.48,g/mol,,,,,,,
LY-341 495,,,,,,,,,,
Tin(IV) fluoride,SnF$_{4}$,194.704,g/mol,,,,,,,
Isovaleraldehyde,C$_{5}$H$_{10}$O,,,-51,$^{\circ}$C,,,92,$^{\circ}$C,"Soluble in alcohol and ether, slightly soluble in water"
Aminophenazone,C$_{13}$H$_{17}$N$_{3}$O,,,,,,,,,
Saripidem,C$_{19}$H$_{20}$ClN$_{3}$O,,,,,,,,,
Ribostamycin,C$_{17}$H$_{34}$N$_{4}$O$_{10}$,,,,,,,,,
O-Coumaric acid,C$_{9}$H$_{8}$O$_{3}$,164.16,g/mol,,,,,,,
Cibenzoline,C$_{18}$H$_{18}$N$_{2}$,262.35,g/mol,,,,,,,
Stearyl palmityl tartrate,C$_{40}$H$_{74}$O$_{6}$TOC$_{38}$H$_{78}$O$_{6}$,627-655,g/mol,,,,,,,
Ethyl sulfate,C$_{2}$H$_{6}$O$_{4}$S,,,,,1.46,g/cm$^{3}$,,,
Iodine pentoxide,I$_{2}$O$_{5}$,333.81,g/mol,300,$^{\circ}$C,4.980,g/cm$^{3}$,,,
Bedaquiline,CnHm,,,,,,,,,
Lycopene,C$_{40}$H$_{56}$,,,172-173,$^{\circ}$C,0.889,g/cm$^{3}$,660.9,$^{\circ}$C,insoluble
Ammonium ferric citrate,C$_{6}$H$_{5+4y}$Fe$_{x}$N$_{y}$O$_{7}$,,,,,,,,,
Jasmone,C$_{11}$H$_{16}$O,164.246,g/mol,203-205,$^{\circ}$C,,,146,$^{\circ}$C,in water
Europium(III) oxide,Eu$_{2}$O$_{3}$,351.926,g/mol,2350,$^{\circ}$C,7.40,g/cm$^{3}$,,,Negligible
PF-03654746,C$_{18}$H$_{24}$F$_{2}$N$_{2}$O,,,,,,,,,
Fenchone,C$_{10}$H$_{16}$O,152.23,g/mol,6.1,$^{\circ}$C,0.948,g/cm$^{3}$,193.5,$^{\circ}$C,
Ornithine,C$_{5}$H$_{12}$N$_{2}$O$_{2}$,132.16,g/mol,140,$^{\circ}$C,,,,,soluble
Fluorenol,C$_{13}$H$_{10}$O,182.22,g/mol,152-155,$^{\circ}$C,,,,,Practically insoluble
GTS-21,C$_{19}$H$_{20}$N$_{2}$O$_{2}$,,,,,,,,,
Oxaceprol,C$_{7}$H$_{11}$NO$_{4}$,,,,,,,,,
Etamsylate,C$_{10}$H$_{17}$NO$_{5}$S,,,,,,,,,
Potassium cyanate,KOCN,81.1151,g/mol,315,$^{\circ}$C,2.056,g/cm$^{3}$,,,
Rafivirumab,C$_{6462}$H$_{9954}$N$_{1718}$O$_{2036}$S$_{46}$,,,,,,,,,
Sodium stannate,H$_{6}$Na$_{2}$O$_{6}$Sn,266.73,g/mol,,,4.68,g/cm$^{3}$,,,
Medicarpin,C$_{16}$H$_{14}$O$_{4}$,270.27,g/mol,,,,,,,
Buflomedil,C$_{17}$H$_{25}$NO$_{4}$,307.38,g/mol,,,,,,,
Fluorenylidene,C$_{13}$H$_{8}$,,,,,,,,,
QUPIC,C$_{23}$H$_{22}$N$_{2}$O$_{2}$,,,,,,,,,
Levofloxacin,C$_{18}$H$_{20}$FN$_{3}$O$_{4}$,,,,,,,,,
CP-132 484,,,,,,,,,,
Fluoroiodomethane,CH$_{2}$FI,159.93,g/mol,,,,,53.4,$^{\circ}$C,
Dronedarone,C$_{31}$H$_{44}$N$_{2}$O$_{5}$S,,,,,,,,,
Scilliroside,C$_{32}$H$_{44}$O$_{12}$,,,,,,,,,
Phenethyl alcohol,C$_{8}$H$_{10}$O,122.16,g/mol,-27,$^{\circ}$C,1.017,g/cm$^{3}$,219-221,$^{\circ}$C,
O-2113,C$_{25}$H$_{39}$NO$_{4}$S,,,,,,,,,
Glyclopyramide,C$_{11}$H$_{14}$ClN$_{3}$O$_{3}$S,,,,,,,,,
Clopimozide,C$_{28}$H$_{28}$ClF$_{2}$N$_{3}$O,,,,,,,,,
Distearyldimethylammonium chloride,C$_{38}$H$_{80}$NCl,,,< 25,$^{\circ}$C,,,,,
Amibegron,C$_{22}$H$_{26}$ClNO$_{4}$,,,,,,,,,
Rubicordifolin,C$_{33}$H$_{28}$O$_{9}$,,,,,,,,,
Isophorone diisocyanate,C$_{12}$H$_{18}$N$_{2}$O$_{2}$,222.3,g/mol,-60,$^{\circ}$C,,,158,$^{\circ}$C,
Aceturic acid,C$_{4}$H$_{7}$NO$_{3}$,,,206-208,$^{\circ}$C,,,,,2.7% at 15
Quilizumab,C$_{6492}$H$_{10046}$N$_{1728}$O$_{2023}$S$_{44}$,,,,,,,,,
Zinc telluride,ZnTe,192.99,g/mol,,,6.34,g/cm$^{3}$,,,
PSB-SB-487,C$_{26}$H$_{32}$O$_{4}$,,,,,,,,,
Oxymesterone,C$_{20}$H$_{30}$O$_{3}$,318.45,g/mol,,,,,,,
Samarium(III) oxide,Sm$_{2}$O$_{3}$,348.72,g/mol,2335,$^{\circ}$C,8.347,g/cm$^{3}$,,,insoluble
Renzapride,C$_{16}$H$_{22}$ClN$_{3}$O$_{2}$,,,,,,,,,
Tin(II) chloride,SnCl$_{2}$,189.60,g/mol,247,$^{\circ}$C,3.95,g/cm$^{3}$,623,$^{\circ}$C,83.9
Azlocillin,C$_{20}$H$_{23}$N$_{5}$O$_{6}$S,,,,,,,,,
Cholesterol,C$_{27}$H$_{46}$O,386.65,g/mol,148-150,$^{\circ}$C,1.052,g/cm$^{3}$,360,$^{\circ}$C,1.8
Acetamide,C$_{2}$H$_{5}$NO,,,79,$^{\circ}$C,1.159,g/cm$^{3}$,221.2,$^{\circ}$C,
Paricalcitol,C$_{27}$H$_{44}$O$_{3}$,,,,,,,,,
Teclozan,C$_{20}$H$_{28}$Cl$_{4}$N$_{2}$O$_{4}$,,,,,,,,,
Zirconium tungstate,Zr(WO$_{4}$)$_{2}$,586.92,g/mol,,,,,,,negligible
Simonellite,C$_{19}$H$_{24}$,252.38,g/mol,,,,,,,
Asparagine,C$_{4}$H$_{8}$N$_{2}$O$_{3}$,,,234,$^{\circ}$C,1.543,g/cm$^{3}$,438,$^{\circ}$C,2.94
Chromium(III) iodide,CrI$_{3}$,432.710,g/mol,> 600,$^{\circ}$C,5.32,g/cm$^{3}$,,,
Delta-Viniferin,C$_{28}$H$_{22}$O$_{6}$,454.47,g/mol,,,,,,,
Procainamide,C$_{13}$H$_{21}$N$_{3}$O,,,,,,,,,
Phosphoribosylamine,C$_{5}$H$_{12}$NO$_{7}$P,229.125,g/mol,,,,,,,
Ammonium chromate,N$_{2}$H$_{8}$CrO$_{4}$,152.07,g/mol,185,$^{\circ}$C,,,,,24.8
Phosphorus pentoxide,P$_{4}$O$_{10}$,,,340,$^{\circ}$C,2.39,g/cm$^{3}$,360,$^{\circ}$C,exothermic hydrolysis
Thunberginol B,C$_{15}$H$_{10}$O$_{6}$,286.23,g/mol,,,,,,,
Proamanullin,C$_{39}$H$_{54}$N$_{10}$O$_{11}$S,870.97,g/mol,,,,,,,
Decamethylcyclopentasiloxane,C$_{10}$H$_{30}$O$_{5}$Si$_{5}$,,,,,,,210,$^{\circ}$C,17.03$\pm$0.72
Rosiridin,C$_{16}$H$_{28}$O$_{7}$,332.39,g/mol,,,,,,,
N'-Formylkynurenine,C$_{11}$H$_{12}$N$_{2}$O$_{4}$,236.224,g/mol,,,,,563.4,$^{\circ}$C,
Cyclosarin,C$_{7}$H$_{14}$FO$_{2}$P,,,-30,$^{\circ}$C,1.1278,g/cm$^{3}$,239,$^{\circ}$C,Almost insoluble
Azodicarbonamide,C$_{2}$H$_{4}$O$_{2}$N$_{4}$,,,225,$^{\circ}$C,,,,,
Volinanserin,C$_{22}$H$_{28}$FNO$_{3}$,,,,,,,,,
Coproporphyrinogen I,C$_{36}$H$_{44}$N$_{4}$O$_{8}$,660.757,g/mol,,,,,,,
RTI-171,C$_{19}$H$_{24}$N$_{2}$O,,,,,,,,,
Beta-Propiolactone,C$_{3}$H$_{4}$O$_{2}$,,,-33.4,$^{\circ}$C,1.1460,g/cm$^{3}$,162,$^{\circ}$C,37
Naphthanthrone,C$_{19}$H$_{10}$O,,,,,1.397,g/cm$^{3}$,,,
Lead(II) oxalate,PbC$_{2}$O$_{4}$,,,327.4,$^{\circ}$C,5.28,g/cm$^{3}$,1740,$^{\circ}$C,
Xanthoxin,C$_{15}$H$_{22}$O$_{3}$,,,,,,,371.1,$^{\circ}$C,
Germanium telluride,GeTe,200.21,g/mol,725,$^{\circ}$C,6.14,g/cm$^{3}$,,,
Sphingosine-1-phosphate,C$_{18}$H$_{38}$NO$_{5}$P,,,,,,,,,
Tetramethyl acetyloctahydronaphthalenes,C$_{16}$H$_{26}$O,234.4,g/mol,<-20,$^{\circ}$C,,,290,$^{\circ}$C,
Tetrahydrofuran,C$_{4}$H$_{8}$O,,,-108.4,$^{\circ}$C,,,66,$^{\circ}$C,Miscible
Tolciclate,C$_{20}$H$_{21}$NOS,,,,,,,,,
Cellocidin,C$_{20}$H$_{24}$O$_{6}$,112.08,g/mol,179,$^{\circ}$C,,,293.959,$^{\circ}$C,
Scopolamine,C$_{17}$H$_{21}$NO$_{4}$,,,,,,,,,
Eupalitin,C$_{17}$H$_{14}$O$_{7}$,,,,,,,,,
Kopexil,C$_{4}$H$_{6}$N$_{4}$O,,,210-218,$^{\circ}$C,,,,,slightly soluble
Kainic acid,C$_{10}$H$_{15}$NO$_{4}$,,,215,$^{\circ}$C,,,,,
Abacavir,C$_{14}$H$_{18}$N$_{6}$O,,,,,,,,,
Androstenol,C$_{19}$H$_{30}$O,,,,,,,,,
DEPBT,C$_{11}$H$_{14}$N$_{3}$O$_{5}$P,299.22,g/mol,,,,,,,
Pinolenic acid,C$_{18}$H$_{30}$O$_{2}$,278.4296,g/mol,,,,,,,
Azalein,C$_{22}$H$_{22}$O$_{11}$,462.40,g/mol,181-185,$^{\circ}$C,,,,,
Tetramethylbutane,C$_{8}$H$_{18}$,,,,,,,,,
Endo-Norborneol,C$_{7}$H$_{12}$O,112.17,g/mol,149-154,$^{\circ}$C,,,,,
Uranocene,C$_{16}$H$_{16}$U,446.33,g/mol,,,,,,,
Thionyl tetrafluoride,SOF$_{4}$,,,-99.6,$^{\circ}$C,,,-49,$^{\circ}$C,
Isopropamide,C$_{23}$H$_{33}$N$_{2}$O$^{+}$,,,,,,,,,
Calcium borate,C$_{40}$H$_{56}$,237.852,g/mol,,,,,,,
Acutissimin A,C$_{56}$H$_{38}$O$_{31}$,1206.88,g/mol,,,,,,,