Name,formula,Property Molar Mass,Property Molar Mass units,Property Melting Point,Property Melting Point units,Property Density,Property Density units,Property Boiling Point,Property Boiling Point units,Property Solubility
CID-16020046,C$_{25}$H$_{19}$N$_{3}$O$_{4}$,,,,,,,,,
Thyronine,C$_{15}$H$_{15}$NO$_{4}$,273.28,g/mol,,,,,,,
Bromothymol blue,C$_{27}$H$_{28}$Br$_{2}$O$_{5}$S,,,202,$^{\circ}$C,1.25,g/cm$^{3}$,,,
Pyrrolidonyl-$\beta$-naphthylamide,C$_{15}$H$_{14}$N$_{2}$O$_{2}$,,,,,,,,,
Hydroxy-1 4-benzoquinone,C$_{6}$H$_{4}$O$_{3}$,124.1,g/mol,,,,,,,
Beryllium nitride,Be$_{3}$N$_{2}$,55.06,g/mol,2200,$^{\circ}$C,2.71,g/cm$^{3}$,2240,$^{\circ}$C,hydrolyzes
Allopurinol,C$_{5}$H$_{4}$N$_{4}$O,,,,,,,,,
Cromoglicic acid,,,,,,,,,,
Tributyltin hydride,SnC$_{12}$H$_{28}$,,,,,,,80,$^{\circ}$C,Slowly reacts
Prucalopride,C$_{18}$H$_{26}$ClN$_{3}$O$_{3}$,,,,,,,,,
Atibeprone,C$_{17}$H$_{18}$N$_{2}$O$_{3}$S,,,,,,,,,
Atrasentan,C$_{29}$H$_{38}$N$_{2}$O$_{6}$,,,,,,,,,
Pentamycin,C$_{35}$H$_{58}$O$_{12}$,,,,,,,,,
Lysergol,C$_{16}$H$_{18}$N$_{2}$O,254.33,g/mol,,,,,,,
Tipranavir,C$_{31}$H$_{33}$F$_{3}$N$_{2}$O$_{5}$S,,,,,,,,,
Niridazole,C$_{6}$H$_{6}$N$_{4}$O$_{3}$S,,,,,,,,,
Caffeine citrate,,,,,,,,,,
Brincidofovir,C$_{27}$H$_{52}$N$_{3}$O$_{7}$P,,,,,,,,,
Pirnabine,C$_{19}$H$_{24}$O$_{3}$,,,,,,,,,
Methylphosphonyl difluoride,CH$_{3}$POF$_{2}$,,,,,,,,,
Cefmatilen,C$_{15}$H$_{14}$N$_{8}$O$_{5}$S$_{4}$,,,,,,,,,
Bis-tris propane,C$_{11}$H$_{26}$N$_{2}$O$_{6}$,,,164,$^{\circ}$C,,,,,
PRE-084,C$_{19}$H$_{27}$NO$_{3}$,,,,,,,,,
Pheneturide,C$_{11}$H$_{14}$N$_{2}$O$_{2}$,,,,,,,,,
Diazinon,C$_{12}$H$_{21}$N$_{2}$O$_{3}$PS,,,,,,,,,40
Deoxycytidine diphosphate,C$_{9}$H$_{15}$N$_{3}$O$_{10}$P$_{2}$,,,,,,,,,
Gallagic acid,C$_{28}$H$_{14}$O$_{18}$,638.39,g/mol,,,,,,,
Aclarubicin,C$_{42}$H$_{53}$NO$_{15}$,,,,,,,,,
Xamoterol,C$_{16}$H$_{25}$N$_{3}$O$_{5}$,,,,,,,,,
Boron sulfide,B$_{2}$S$_{3}$,117.80,g/mol,563,$^{\circ}$C,,,,,decomposes
Isopromethazine,C$_{17}$H$_{20}$N$_{2}$S,,,,,,,,,
Iodine monochloride,ICl,162.35,g/mol,27.2,$^{\circ}$C,3.10,g/cm$^{3}$,97.4,$^{\circ}$C,hydrolysis
Ferujol,C$_{19}$H$_{24}$O$_{4}$,316.39,g/mol,,,,,,,
Sotolon,C$_{6}$H$_{8}$O$_{3}$,,,26,$^{\circ}$C,1.049,g/cm$^{3}$,184,$^{\circ}$C,
Daidzin,C$_{21}$H$_{20}$O$_{9}$,,,,,,,,,
Nonactin,C$_{40}$H$_{64}$O$_{12}$,,,146,$^{\circ}$C,,,,,
Sevoflurane,C$_{4}$H$_{3}$F$_{7}$O,,,,,,,,,
Apramycin,C$_{21}$H$_{41}$N$_{5}$O,,,,,,,,,
Thorium dioxide,ThO$_{2}$,264.04,g/mol,3390,$^{\circ}$C,10.00,g/cm$^{3}$,4400,$^{\circ}$C,insoluble
Levormeloxifene,C$_{30}$H$_{35}$NO$_{3}$,,,,,,,,,
Nickel(II) iodide,NiI$_{2}$,,,780,$^{\circ}$C,5.384,g/cm$^{3}$,,,124.2
Naphyrone,C$_{19}$H$_{23}$NO,,,,,,,,,
Thiane,C$_{5}$H$_{10}$S,,,,,,,,,
Twistane,C$_{10}$H$_{16}$,136.234,g/mol,163-164.8,$^{\circ}$C,,,,,
Desipramine,C$_{18}$H$_{22}$N$_{2}$,,,,,,,,,
Leucoanthocyanidin,C$_{15}$H$_{14}$O$_{3}$,242.26,g/mol,,,,,,,
Calyculin,C$_{51}$H$_{83}$N$_{4}$O$_{15}$P(CAl$_{y}$CuLiNC),1023.2,g/mol,,,,,,,
Asymbescaline,C$_{13}$H$_{21}$NO$_{3}$,239.31,g/mol,,,,,,,
Flunixin,C$_{14}$H$_{11}$F$_{3}$N$_{2}$O$_{2}$,,,,,,,,,
Behenic acid,C$_{22}$H$_{44}$O$_{2}$,,,80.0,$^{\circ}$C,,,306,$^{\circ}$C,
Himbacine,C$_{22}$H$_{35}$NO$_{2}$,,,,,,,,,
Paraxanthine,C$_{7}$H$_{8}$N$_{4}$O$_{2}$,,,351,$^{\circ}$C,,,,,
SB-258719,C$_{18}$H$_{32}$N$_{2}$O$_{2}$S,,,,,,,,,
Dihydrocodeine,C$_{18}$H$_{23}$NO$_{3}$,,,,,,,,,
Serotonin,C$_{10}$H$_{12}$N$_{2}$O,176.215,g/mol,,,,,,,
Digitalose,C$_{7}$H$_{14}$O$_{5}$,,,106,$^{\circ}$C,,,,,
Trefentanil,C$_{25}$H$_{31}$FN$_{6}$O$_{2}$,,,,,,,,,
Pyrrobutamine,C$_{20}$H$_{22}$ClN,,,,,,,,,
Iridium acetylacetonate,IrC$_{15}$H$_{21}$O$_{6}$,,,269-271,$^{\circ}$C,,,,,
Zinc ricinoleate,C$_{36}$H$_{66}$O$_{6}$Zn,,,,,,,,,
Dithionate,O$_{6}$S$^{2-}_{2}$,,,,,,,,,
Mellitic anhydride,C$_{12}$O$_{9}$,,,,,,,,,
Cynaroside,C$_{21}$H$_{20}$O$_{11}$,448.37,g/mol,266-268,$^{\circ}$C,,,,,
Potassium sulfate,K$_{2}$SO$_{4}$,174.259,g/mol,1069,$^{\circ}$C,2.66,g/cm$^{3}$,1689,$^{\circ}$C,111
Esmirtazapine,C$_{17}$H$_{19}$N$_{3}$,,,,,,,,,
Sibopirdine,C$_{23}$H$_{18}$N$_{4}$,,,,,,,,,
Imiglucerase,C$_{2532}$H$_{3854}$N$_{672}$O$_{711}$S$_{16}$,,,,,,,,,
Methylcyclohexane,C$_{7}$H$_{14}$,,,-126.3,$^{\circ}$C,0.77,g/cm$^{3}$,101,$^{\circ}$C,Insoluble in water
Picolinic acid,C$_{6}$H$_{5}$NO$_{2}$,,,136-138,$^{\circ}$C,,,,,887
Selank,C$_{33}$H$_{57}$N$_{11}$O$_{9}$,,,,,,,,,
Manganese(II) selenide,MnSe,133.9,g/mol,1460,$^{\circ}$C,5.59,g/cm$^{3}$,,,insoluble
Gadodiamide,C$_{16}$H$_{28}$GdN$_{5}$O$_{9}$,,,,,,,,,
Naltrindole,C$_{26}$H$_{26}$N$_{2}$O$_{3}$,,,,,,,,,
Hydroxydanaidal,C$_{8}$H$_{9}$NO$_{2}$,,,55,$^{\circ}$C,,,,,
Dihydrotestosterone,C$_{19}$H$_{30}$O$_{2}$,,,,,,,,,
Testolactone,C$_{19}$H$_{24}$O$_{3}$,,,,,,,,,
Chlorohydridobis(bis-1 2-(diphenylphosphino)ethane)iron(II),C$_{52}$H$_{49}$P$_{4}$ClFe,,,195,$^{\circ}$C,,,,,
Fresolimumab,C$_{6392}$H$_{9926}$N$_{1698}$O$_{2026}$S$_{44}$,,,,,,,,,
Triphenylmethyl chloride,C$_{19}$H$_{15}$Cl,278.7754,g/mol,109-112,$^{\circ}$C,,,230,$^{\circ}$C,
TosMIC,C$_{9}$H$_{9}$NO$_{2}$S,,,109-113,$^{\circ}$C,,,,,
Ticlopidine,C$_{14}$H$_{14}$ClNS,,,,,,,,,
Nitromemantine,C$_{14}$H$_{24}$N$_{2}$O$_{3}$,,,,,,,,,
Silver iodide,AgI,234.77,g/mol,558,$^{\circ}$C,,,1506,$^{\circ}$C,3x10$^{-7}$
Isonicotinic acid,C$_{6}$H$_{5}$NO$_{2}$,123.11,g/mol,310,$^{\circ}$C,,,,,
Benzylacetone,C$_{10}$H$_{12}$O,,,,,,,235,$^{\circ}$C,
Dimethoxymethamphetamine,C$_{12}$H$_{19}$NO$_{2}$,,,,,,,,,
Vanadocene dichloride,C$_{10}$H$_{10}$Cl$_{2}$V,252.03,g/mol,,,,,,,Soluble (Hydrolysis)
Butanilicaine,C$_{13}$H$_{19}$ClN$_{2}$O,,,,,,,,,
Flibanserin,C$_{20}$H$_{21}$F$_{3}$N$_{4}$O,,,,,,,,,
Trimipramine,C$_{20}$H$_{26}$N$_{2}$,,,,,,,,,
Cis-Dichlorobis(ethylenediamine)cobalt(III) chloride,C$_{4}$H$_{16}$Cl$_{3}$CoN$_{4}$,,,,,,,,,good
Cyclohexene oxide,C$_{6}$H$_{10}$O,,,ca.-40,$^{\circ}$C,,,ca. 130,$^{\circ}$C,Practically insoluble
EEM (psychedelic),C$_{14}$H$_{23}$NO$_{3}$,253.34,g/mol,,,,,,,
Tenidap,C$_{14}$H$_{9}$ClN$_{2}$O$_{3}$S,,,,,,,,,
Molybdenum(IV) fluoride,MoF$_{4}$,291.71,g/mol,,,,,,,reacts with water
Polyoxymethylene dimethyl ethers,H$_{3}$CO(CH$_{2}$O)$_{n}$CH$_{3}$,,,,,,,,,
Arsenic acid,H$_{3}$AsO$_{4}$,141.94,g/mol,35.5,$^{\circ}$C,2.5,g/cm$^{3}$,120,$^{\circ}$C,16.7
Hitachimycin,C$_{29}$H$_{35}$NO$_{5}$,,,,,,,,,
Ursolic acid,C$_{30}$H$_{48}$O$_{3}$,,,285-288,$^{\circ}$C,,,556.89,$^{\circ}$C,
Nitrocefin,C$_{21}$H$_{16}$N$_{4}$O$_{8}$S$_{2}$,,,,,,,,,
Vinylphosphonic acid,C$_{2}$H$_{5}$O$_{3}$P,,,36,$^{\circ}$C,,,,,
MC21-A,C$_{12}$H$_{6}$Br$_{4}$O$_{2}$,,,205-207,$^{\circ}$C,,,,,"Sol. MeOH, CHCl$_{3}$ insol. H$_{2}$O, hexane"
Glycyrrhizin,C$_{42}$H$_{62}$O$_{16}$,,,,,,,,,1-10
WIN 55 212-2,,,,,,,,,,
Dioxybenzone,C$_{14}$H$_{12}$O$_{4}$,244.25,g/mol,68,$^{\circ}$C,1.38,g/cm$^{3}$,170-175,$^{\circ}$C,
Acetohydroxamic acid,,,,,,,,,,
Zirconium disilicide,ZrSi$_{2}$,147.395,g/mol,1620,$^{\circ}$C,4.88,g/cm$^{3}$,,,insoluble
Muramic acid,C$_{9}$H$_{17}$NO$_{7}$,,,,,,,,,
Beryllium hydroxide,H$_{2}$BeO$_{2}$,,,1000,$^{\circ}$C,,,,,slightly soluble
Sakuranin,C$_{22}$H$_{24}$O$_{10}$,448.41,g/mol,,,,,,,
ZK-93426,C$_{18}$H$_{20}$N$_{2}$O$_{3}$,314.336,g/mol,,,,,,,
Iprindole,C$_{19}$H$_{28}$N$_{2}$,,,,,,,,,
Antimony sulfate,Sb$_{2}$(SO$_{4}$)$_{3}$,531.7078,g/mol,,,3.6246,g/cm$^{3}$,,,soluble
Molybdenum trisulfide,MoS$_{3}$,192.155,g/mol,,,,,,,insoluble
Fulvalene,C$_{10}$H$_{8}$,,,,,,,,,
HMG-CoA,C$_{27}$H$_{44}$N$_{7}$O$_{20}$P$_{3}$S,911.661,g/mol,,,,,,,
Milatuzumab,C$_{6518}$H$_{10066}$N$_{1758}$O$_{2020}$S$_{40}$,,,,,,,,,
Piracetam,C$_{6}$H$_{10}$N$_{2}$O$_{2}$,,,,,,,,,
Cinchocaine,C$_{20}$H$_{29}$N$_{3}$O$_{2}$,,,,,,,,,
Silandrone,C$_{22}$H$_{36}$O$_{2}$Si,,,,,,,,,
Etravirine,C$_{20}$H$_{15}$BrN$_{6}$O,,,,,,,,,
Flurbiprofen,C$_{15}$H$_{13}$FO$_{2}$,,,,,,,,,
Kebuzone,C$_{19}$H$_{18}$N$_{2}$O$_{3}$,,,,,,,,,
Camptothecin,C$_{20}$H$_{16}$N$_{2}$O$_{4}$,,,275,$^{\circ}$C,,,,,
Terodiline,C$_{20}$H$_{27}$N,,,,,,,,,
Indazole,C$_{7}$H$_{6}$N$_{2}$,118.14,g/mol,147-149,$^{\circ}$C,,,270,$^{\circ}$C,
Tert-Butyl hydroperoxide,C$_{4}$H$_{10}$O$_{2}$,,,-3,$^{\circ}$C,,,37,$^{\circ}$C,miscible
Dichloroisocyanuric acid,C$_{3}$HCl$_{2}$N$_{3}$O$_{3}$,197.96,g/mol,225,$^{\circ}$C,2.2,g/cm$^{3}$,,,
Medrogestone,C$_{23}$H$_{32}$O$_{2}$,,,,,,,,,
Nothofagin,C$_{21}$H$_{24}$O$_{10}$,436.40,g/mol,,,,,,,
Ammonium iodide,NH$_{4}$I,144.94,g/mol,551,$^{\circ}$C,2.51,g/cm$^{3}$,235,$^{\circ}$C,155
Phosphorine,C$_{5}$H$_{5}$P,,,,,,,,,
Phosphorus trichloride,PCl$_{3}$,137.33,g/mol,-93.6,$^{\circ}$C,1.574,g/cm$^{3}$,76.1,$^{\circ}$C,
Ethanedisulfonic acid,C$_{2}$H$_{6}$S$_{2}$O$_{6}$,,,172-174,$^{\circ}$C,,,,,
Colforsin,C$_{27}$H$_{43}$NO$_{8}$,,,,,,,,,
Taurine,C$_{2}$H$_{7}$NO$_{3}$S,125.14,g/mol,305.11,$^{\circ}$C,1.734,g/cm$^{3}$,,,
Fenpiprane,C$_{20}$H$_{25}$N,,,,,,,,,
Cyclohexanethiol,C$_{6}$H$_{12}$S,,,,,0.95,g/cm$^{3}$,,,low
Cyamemazine,C$_{19}$H$_{21}$N$_{3}$S,,,,,,,,,
Phenylpropiolic acid,C$_{9}$H$_{6}$O$_{2}$,146.14,g/mol,135-137,$^{\circ}$C,,,,,
Methylpentynol,C$_{6}$H$_{10}$O,,,,,,,,,
Dichloro(cycloocta-1 5-diene)platinum(II),C$_{8}$H$_{12}$Cl$_{2}$Pt,,,285,$^{\circ}$C,,,,,
Octadecyltrimethoxysilane,C$_{21}$H$_{46}$O$_{3}$Si,,,16,$^{\circ}$C,,,170,$^{\circ}$C,
Vitamin C,,,,190,$^{\circ}$C,1.694,g/cm$^{3}$,553,$^{\circ}$C,
Isopropylamine,C$_{3}$H$_{9}$N,,,,,,,,,Miscible
Niclosamide,C$_{13}$H$_{8}$Cl$_{2}$N$_{2}$O$_{4}$,,,,,,,,,
Tantalum(IV) sulfide,TaS$_{2}$,245.08,g/mol,3000,$^{\circ}$C,,,,,
Monopotassium phosphite,KH$_{2}$PO$_{3}$,,,,,2.14,g/cm$^{3}$,,,220
BAY 59-3074,,,,,,,,,,
Methyl hydroxychalcone,C$_{16}$H$_{14}$O$_{2}$,238.28,g/mol,,,,,,,
Mercuric amidochloride,ClH$_{2}$HgN,252.065,g/mol,,,5.56,g/cm$^{3}$,,,
Simple Cefalexin,C$_{16}$H$_{17}$N$_{3}$O$_{4}$S,,,326.8,$^{\circ}$C,,,,,
Tetrauranium octadecafluoride,U$_{4}$F$_{18}$,647.043,g/mol,,,,,,,
U46619,C$_{21}$H$_{34}$O$_{4}$,350.49,g/mol,,,,,,,
Eprazinone,C$_{24}$H$_{32}$N$_{2}$O$_{2}$,,,,,,,,,
Adiponitrile,C$_{6}$H$_{8}$N$_{2}$,,,,,,,,,50
CPCCOEt,C$_{13}$H$_{13}$NO$_{4}$,,,,,,,,,
Camylofin,C$_{19}$H$_{32}$N$_{2}$O$_{2}$,,,,,,,,,
Alizarine Yellow R,C$_{13}$H$_{8}$N$_{3}$NaO$_{5}$(NAsAlT),,,,,,,,,
Azaserine,C$_{5}$H$_{7}$N$_{3}$O$_{4}$,,,,,,,,,
Stevioside,C$_{38}$H$_{60}$O$_{18}$,,,,,,,,,
Piperacetazine,C$_{24}$H$_{30}$N$_{2}$O$_{2}$S,,,,,,,,,
Karstedt's catalyst,C$_{24}$H$_{54}$O$_{3}$Pt$_{2}$Si$_{6}$,949.4,g/mol,12-13,$^{\circ}$C,1.74,g/cm$_{3}$,,,
Yttrium(III) antimonide,YSb,210.666,g/mol,2310,$^{\circ}$C,5.97,g/cm$^{3}$,,,
CECXG,C$_{22}$H$_{23}$NO$_{5}$,,,,,,,,,
Allyl acetate,C$_{5}$H$_{8}$O$_{2}$,,,,,0.928,g/cm$^{3}$,103,$^{\circ}$C,slightly soluble
Hafnium(IV) silicate,HfO$_{4}$Si,,,2758,$^{\circ}$C,7.0,g/cm$^{3}$,,,
Lemborexant,C$_{22}$H$_{20}$F$_{2}$N$_{4}$O$_{2}$,,,,,,,,,
Perrottetinene,C$_{24}$H$_{28}$O$_{2}$,,,,,,,,,
Piroxicam,C$_{15}$H$_{13}$N$_{3}$O$_{4}$S,,,,,,,,,
Buthionine sulfoximine,C$_{8}$H$_{18}$N$_{2}$O$_{3}$S,222.305,g/mol,215,$^{\circ}$C,,,382.3,$^{\circ}$C,
Mometasone furoate,,,,,,,,,,
Germanium tetrafluoride,GeF$_{4}$,148.634,g/mol,-15,$^{\circ}$C,,,-36.5,$^{\circ}$C,
Yttrium (90Y) tacatuzumab tetraxetan,,,,,,,,,,
Tungsten(V) chloride,W$_{2}$Cl$_{10}$,361.1,g/mol,248,$^{\circ}$C,,,275.6,$^{\circ}$C,
Meta-Chloroperoxybenzoic acid,C$_{7}$H$_{5}$ClO$_{3}$,,,92-94,$^{\circ}$C,,,,,
Isobutyl formate,C$_{5}$H$_{10}$O$_{2}$,,,-96,$^{\circ}$C,,,98.4,$^{\circ}$C,
Quadricyclane,C$_{7}$H$_{8}$,92.14,g/mol,-44,$^{\circ}$C,0.982,g/cm$^{3}$,108,$^{\circ}$C,Insoluble
Ibutamoren,C$_{27}$H$_{36}$N$_{4}$O$_{5}$S,,,,,,,,,
New fuchsine,C$_{22}$H$_{24}$N$_{3}$Cl,,,,,,,,,
Cefatrizine,C$_{18}$H$_{18}$N$_{6}$O$_{5}$S$_{2}$,,,,,,,,,
Etomidate,C$_{14}$H$_{16}$N$_{2}$O$_{2}$,,,,,,,,,
Velaglucerase alfa,,,,,,,,,,
Benzoyl-$\beta$-D-glucoside,C$_{13}$H$_{16}$O$_{7}$,,,,,,,,,
Thiazoline,C$_{3}$H$_{5}$NS,,,,,,,135-138,$^{\circ}$C,
DTPMP,C$_{9}$H$_{28}$N$_{3}$O$_{15}$P$_{5}$,,,,,,,,,
Ethidium bromide,C$_{21}$H$_{20}$BrN$_{3}$,394.294,g/mol,260-262,$^{\circ}$C,,,,,~ 40
Camazepam,C$_{19}$H$_{18}$ClN$_{3}$O$_{3}$,,,,,,,,,
Trinitramide,N$_{4}$O$_{6}$,,,,,,,,,
Rhenium heptafluoride,ReF$_{7}$,319.196,g/mol,48.3,$^{\circ}$C,,,73.72,$^{\circ}$C,
Paris Green,Cu(C$_{2}$H$_{3}$O$_{2}$)$_{2}$.3Cu(AsO$_{2}$)$_{2}$,1013.79444,g/mol,>345,$^{\circ}$C,>1.1,g/cm$^{3}$,,,insoluble
Tantalum(V) chloride,TaCl$_{5}$,358.213,g/mol,216,$^{\circ}$C,3.68,g/cm$^{3}$,239.4,$^{\circ}$C,reacts
Sincalide,C$_{49}$H$_{62}$N$_{10}$O$_{16}$S$_{3}$,,,,,,,,,
Aloin,C$_{21}$H$_{22}$O$_{9}$,,,148,$^{\circ}$C,,,,,
Cyclen,C$_{8}$H$_{20}$N$_{4}$,,,,,,,,,
Picric acid,C$_{6}$H$_{3}$N$_{3}$O$_{7}$,,,122.5,$^{\circ}$C,,,,,
Alniditan,C$_{17}$H$_{26}$N$_{4}$O,,,,,,,,,
Somatorelin,C$_{215}$H$_{358}$N$_{72}$O$_{66}$S,,,,,,,,,
Leucopeonidin,C$_{16}$H$_{18}$O$_{7}$,322.30,g/mol,,,,,,,
Duloxetine,C$_{18}$H$_{19}$NOS,,,,,,,,,
Butyramide,C$_{4}$H$_{9}$NO,87.12,g/mol,115,$^{\circ}$C,1.03,g/cm$^{3}$,216,$^{\circ}$C,
Lambertianin C,C$_{123}$H$_{80}$O$_{78}$,2805.81,g/mol,,,,,,,
Dibenz(a h)anthracene,C$_{22}$H$_{14}$,,,262,$^{\circ}$C,1.232,g/cm$^{3}$,,,
PF-03550096,C$_{19}$H$_{28}$N$_{4}$O$_{4}$,,,,,,,,,
Butyl nitrite,,,,,,,,,,
Clefamide,C$_{17}$H$_{16}$Cl$_{2}$N$_{2}$O$_{5}$,,,,,,,,,
Trifluorotoluene,C$_{6}$H$_{5}$CF$_{3}$,146.11,g/mol,-29.05,$^{\circ}$C,,,103.46,$^{\circ}$C,soluble
Rilmazafone,C$_{21}$H$_{20}$Cl$_{2}$N$_{6}$O$_{3}$,,,,,,,,,
Methylecgonidine,C$_{10}$H$_{15}$NO$_{2}$,181.232,g/mol,,,,,,,
Diclofenac,C$_{14}$H$_{11}$Cl$_{2}$NO$_{2}$,,,,,,,,,
Litoxetine,C$_{16}$H$_{19}$NO,,,,,,,,,
Ethyl carbamate,C$_{3}$H$_{7}$NO$_{2}$,,,46,$^{\circ}$C,,,182,$^{\circ}$C,0.480
Xestoquinone,C$_{20}$H$_{14}$O$_{4}$,,,,,,,,,
Succinylmonocholine,C$_{9}$H$_{18}$NO$^{+}_{4}$,204.244,g/mol,,,,,,,
Cymarin,C$_{30}$H$_{44}$O$_{9}$,,,,,,,,,
Deoxycholic acid,C$_{24}$H$_{40}$O$_{4}$,,,174-176,$^{\circ}$C,,,,,0.024%
Sumanirole,C$_{11}$H$_{13}$N$_{3}$O,,,,,,,,,
Levomilnacipran,C$_{15}$H$_{22}$N$_{2}$O,,,,,,,,,
Styphnic acid,C$_{6}$H$_{3}$N$_{3}$O$_{8}$,245.11,g/mol,180,$^{\circ}$C,1.829,g/cm$^{3}$,,,
Tetrahydroisoquinoline,C$_{9}$H$_{11}$N,133.19,g/mol,-30,$^{\circ}$C,,,235-239,$^{\circ}$C,
Maitansine,C$_{34}$H$_{46}$ClN$_{3}$O$_{10}$,692.20,g/mol,,,,,,,
JZ-IV-10,C$_{18}$H$_{27}$ClN$_{2}$OS,,,,,,,,,
Enramycin,C$_{107}$H$_{138}$Cl$_{2}$N$_{26}$O$_{3}$,,,,,,,,,
PNU-181731,C$_{12}$H$_{14}$N$_{2}$,,,,,,,,,
Trimellitic anhydride chloride,C$_{9}$H$_{3}$ClO$_{4}$,,,69,$^{\circ}$C,,,,,
Ritonavir,C$_{37}$H$_{48}$N$_{6}$O$_{5}$S$_{2}$,,,,,,,,,
A-84 543,,,,,,,,,,
Alpha-Cyano-4-hydroxycinnamic acid,C$_{10}$H$_{7}$O$_{3}$N,,,245-250,$^{\circ}$C,,,,,
Diatrizoic acid,C$_{11}$H$_{9}$I$_{3}$N$_{2}$O$_{4}$,613.9,g/mol,,,,,,,
Tixocortol pivalate,C$_{26}$H$_{38}$O$_{5}$S,,,,,,,,,
Bufotenin,C$_{12}$H$_{16}$N$_{2}$O,,,146,$^{\circ}$C,,,320,$^{\circ}$C,
Quercetin 3 4'-diglucoside,C$_{27}$H$_{30}$O$_{17}$,626.4,g/mol,,,,,,,
Strontium titanate,SrTiO$_{3}$,183.49,g/mol,2080,$^{\circ}$C,5.11,g/cm$^{3}$,,,insoluble
Stepronin,C$_{10}$H$_{11}$NO$_{4}$S$_{2}$,,,,,,,,,
Tungstic acid,H$_{2}$WO$_{4}$,249.853,g/mol,100,$^{\circ}$C,5.59,g/cm$^{3}$,1473,$^{\circ}$C,insoluble
Valpromide,C$_{8}$H$_{17}$NO,,,125,$^{\circ}$C,,,,,
Mercaptopurine,C$_{5}$H$_{4}$N$_{4}$S,,,,,,,,,
Phosphorus tribromide,PBr$_{3}$,270.69,g/mol,-41.5,$^{\circ}$C,2.852,g/cm$^{3}$,173.2,$^{\circ}$C,rapid hydrolysis
Germanium tetrachloride,GeCl$_{4}$,214.40,g/mol,-49.5,$^{\circ}$C,1.879,g/cm$^{3}$,86.5,$^{\circ}$C,Decomposes
Azacosterol,C$_{25}$H$_{44}$N$_{2}$O,388.63,g/mol,,,,,,,
Durene,C$_{10}$H$_{14}$,,,79.2,$^{\circ}$C,0.868,g/cm$^{3}$,192,$^{\circ}$C,
DMDNB,C$_{6}$H$_{12}$N$_{2}$O$_{4}$,,,210-214,$^{\circ}$C,,,,,
IC-26,C$_{20}$H$_{27}$NO$_{2}$S,,,,,,,,,
Sedoheptulose,C$_{7}$H$_{14}$O$_{7}$,210.182,g/mol,,,,,,,
Acrolein,C$_{3}$H$_{4}$O,,,,,,,,,
Azoximer bromide,,,,,,,,,,
Triphenylphosphine sulfide,C$_{18}$H$_{15}$PS,294.350461,g/mol,161-163,$^{\circ}$C,,,,,"dichloromethane, ethanol"
Phetharbital,C$_{14}$H$_{16}$N$_{2}$O$_{3}$,,,,,,,,,
Radotinib,C$_{27}$H$_{21}$F$_{3}$N$_{8}$O,,,,,,,,,
Nizatidine,C$_{12}$H$_{21}$N$_{5}$O$_{2}$S$_{2}$,,,,,,,,,
Lasofoxifene,C$_{28}$H$_{31}$NO$_{2}$,,,,,,,,,
Isamoltane,C$_{16}$H$_{22}$N$_{2}$O$_{2}$,,,,,,,,,
Cloxacillin,C$_{19}$H$_{18}$ClN$_{3}$O$_{5}$S,,,,,,,,,
Ascomycin,C$_{43}$H$_{69}$NO$_{12}$,,,,,,,,,
Suxamethonium chloride,,,,,,,,,,
Mangafodipir,C$_{22}$H$_{28}$MnN$_{4}$O$_{14}$P$_{2}$,,,,,,,,,
Polyetherketoneketone,C$_{21}$H$_{23}$IN$_{2}$,,,,,1.278,g/cm$^{3}$,,,
Melezitose,C$_{18}$H$_{32}$O$_{16}$,504.44,g/mol,,,,,,,
Dyphylline,C$_{10}$H$_{14}$N$_{4}$O$_{4}$,,,,,,,,,
Ethyl biscoumacetate,,,,,,,,,,
Bamaluzole,C$_{14}$H$_{12}$ClN$_{3}$O,,,,,,,,,
Ergocristine,C$_{35}$H$_{39}$N$_{5}$O$_{5}$,,,,,,,,,
Heptacosylic acid,C$_{27}$H$_{54}$O$_{2}$,410.41,g/mol,,,,,,,
Nipecotic acid,,,,,,,,,,
Ceftizoxime,C$_{13}$H$_{13}$N$_{5}$O$_{5}$S$_{2}$,,,,,,,,,
SB-649 915,,,,,,,,,,
Echinomycin,C$_{51}$H$_{64}$N$_{12}$O$_{12}$S$_{2}$,1101.26,g/mol,,,,,,,
Gold heptafluoride,AuF$_{7}$,322.956,g/mol,,,,,,,
Tangshenoside I,C$_{29}$H$_{42}$O$_{18}$,678.63,g/mol,,,,,,,
Aeruginascin,C$_{13}$H$_{20}$N$_{2}$O$_{4}$P,,,,,,,,,
Ethylvanillin,C$_{9}$H$_{10}$O$_{3}$,,,76,$^{\circ}$C,,,295.1,$^{\circ}$C,slightly soluble in water
Bromochlorosalicylanilide,C$_{7}$H$_{5}$Br$_{3}$O,,,,,,,,,
Tacrine,C$_{13}$H$_{14}$N$_{2}$,,,,,,,,,
Kaempferol 3-O-rutinoside,C$_{27}$H$_{30}$O$_{15}$,594.52,g/mol,,,,,,,
Phenylpropanolamine,C$_{9}$H$_{13}$NO,,,,,,,,,
Ladostigil,C$_{16}$H$_{20}$N$_{2}$O$_{2}$,,,,,,,,,
Tantalum nitride,TaN,194.955,g/mol,3090,$^{\circ}$C,14.3,g/cm$^{3}$,,,insoluble
Fluticasone propionate,,,,,,,,,,
Mafosfamide,C$_{9}$H$_{19}$Cl$_{2}$N$_{2}$O$_{5}$PS$_{2}$,401.269,g/mol,,,,,,,
Nitrofurantoin,C$_{8}$H$_{6}$N$_{4}$O$_{5}$,,,,,,,,,
Rosin (chemical),C$_{15}$H$_{20}$O$_{6}$,296.32,g/mol,,,,,,,
Iodine heptafluoride,IF$_{7}$,259.90,g/mol,4.5,$^{\circ}$C,2.6,g/cm$^{3}$,4.8,$^{\circ}$C,soluble
THC-O-phosphate,C$_{21}$H$_{31}$O$_{5}$P,,,,,,,,,
Codeine methylbromide,,,,,,,,,,
Cuneane,C$_{8}$H$_{8}$,,,,,,,,,
Perfluorobutanesulfonic acid,C$_{4}$HF$_{9}$O$_{3}$S,300.10,g/mol,76-84,$^{\circ}$C,,,211,$^{\circ}$C,
Lead dioxide,PbO$_{2}$,239.1988,g/mol,290,$^{\circ}$C,9.38,g/cm$^{3}$,,,insoluble
Roxadustat,C$_{19}$H$_{16}$N$_{2}$O$_{5}$,,,,,,,,,
Cryptolepine,C$_{16}$H$_{12}$N$_{2}$,,,,,,,,,
Carbonyl cyanide-p-trifluoromethoxyphenylhydrazone,C$_{10}$H$_{5}$F$_{3}$N$_{4}$O,254.16811,g/mol,,,,,,,
Cycloocta-1 3 6-triene,C$_{8}$H$_{10}$,,,,,,,,,
Teicoplanin,chemical_formulaVariable,,,,,,,,,
Acemetacin,C$_{21}$H$_{18}$ClNO$_{6}$,,,,,,,,,
Aluminium diacetate,C$_{4}$H$_{7}$AlO$_{5}$,,,,,,,,,
Feprazone,C$_{20}$H$_{20}$N$_{2}$O$_{2}$,,,,,,,,,
Pentyl,C$_{5}$H$^{.}_{11}$,,,,,,,,,Reacts
Sanguisorbic acid,C$_{21}$H$_{14}$O$_{15}$,506.33,g/mol,,,,,,,
Indium(III) fluoride,InF$_{3}$,171.82,g/mol,1172,$^{\circ}$C,,,,,
Acetonedicarboxylic acid,C$_{5}$H$_{6}$O$_{5}$,146.09814,g/mol,122,$^{\circ}$C,1499,g/cm$^{3}$,408.4,$^{\circ}$C,
Cardamomin,C$_{16}$H$_{14}$O$_{4}$,270.27,g/mol,,,,,,,
Iopamidol,C$_{17}$H$_{22}$I$_{3}$N$_{3}$O$_{8}$,,,,,,,,,
Nigerose,C$_{12}$H$_{22}$O$_{11}$,,,,,,,,,
Metethoheptazine,C$_{17}$H$_{25}$NO$_{2}$,,,,,,,,,
Laricitrin,C$_{16}$H$_{12}$O$_{8}$,332.26,g/mol,,,,,,,
Fosamprenavir,C$_{25}$H$_{36}$N$_{3}$O$_{9}$PS,,,,,,,,,
Dimethylphenylpiperazinium,C$_{12}$H$_{19}$N$_{2}$,,,,,,,,,
Emoxypine,C$_{8}$H$_{11}$NO,,,170,$^{\circ}$C,,,,,
Guanosine pentaphosphate,C$_{10}$H$_{17}$N$_{5}$O$_{17}$P$_{4}$,,,,,,,,,
Aminocyclopyrachlor,C$_{8}$H$_{8}$ClN$_{3}$O$_{2}$,213.62,g/mol,,,,,432.316,$^{\circ}$C,
Terfenadine,C$_{32}$H$_{41}$NO$_{2}$,,,,,,,,,
Hydrogen deuteride,H[$^{2}$H],,,-259,$^{\circ}$C,,,-253,$^{\circ}$C,
Furazabol,C$_{20}$H$_{30}$N$_{2}$O$_{2}$,,,,,,,,,
Benzonitrile,C$_{7}$H$_{5}$N,103.12,g/mol,-13,$^{\circ}$C,,,188-191,$^{\circ}$C,
Thiocarbohydrazide,CH$_{6}$N$_{4}$S,,,171-174,$^{\circ}$C,,,,,
PIPES,C$_{8}$H$_{18}$N$_{2}$O$_{6}$S$_{2}$,,,Decomposes above 300,$^{\circ}$C,,,,,1
DIPAMP,C$_{28}$H$_{28}$O$_{2}$P$_{2}$,458.47,g/mol,,,,,,,
Gemfibrozil,C$_{15}$H$_{22}$O$_{3}$,,,,,,,,,
Orbifloxacin,C$_{19}$H$_{20}$F$_{3}$N$_{3}$O$_{3}$,,,,,,,,,
Camphorsulfonic acid,C$_{10}$H$_{16}$O$_{4}$S,,,,,,,,,
Tracazolate,C$_{16}$H$_{24}$N$_{4}$O$_{2}$,,,,,,,,,
Thromboxane B2,C$_{20}$H$_{34}$O$_{6}$,370.48,g/mol,,,,,,,
Kahweol,C$_{20}$H$_{26}$O$_{3}$,314.42,g/mol,,,,,,,