Property Melting Point,Property Density,Property Boiling Point,Property Solubility,Property Molar Mass,Name,formula
,,,,,Picloxydine,C$_{20}$H$_{24}$Cl$_{2}$N$_{10}$
,,,,528.89,Primulin (anthocyanin),C$_{23}$H$_{25}$ClO$_{12}$
215,,,,,Cortodoxone,C$_{21}$H$_{30}$O$_{4}$
405,,,3.9,560.99,Mercury(I) bromide,Hg$_{2}$Br$_{2}$
667,,,,612.44,Indium(III) telluride,In$_{2}$Te$_{3}$
,,,,288.25,Thunberginol D,C$_{15}$H$_{12}$O$_{6}$
60,1.145,,,,Polycaprolactone,(C$_{6}$H$_{10}$O$_{2}$)$_{n}$
175,,,Insoluble,,Citrinin,C$_{13}$H$_{14}$O$_{5}$
,,,,,Dexbrompheniramine,C$_{16}$H$_{19}$BrN$_{2}$
,,,,,Latanoprost,C$_{26}$H$_{40}$O$_{5}$
,,,,1473.71,Cyclothiazomycin,C$_{59}$H$_{64}$N$_{18}$O$_{14}$S$_{7}$
,,,,,Ibodutant,C$_{37}$H$_{48}$N$_{4}$O$_{4}$S
,,,,254.35,Isopropyl thioxanthone,C$_{16}$H$_{14}$OS
,,,,,Indacaterol,C$_{24}$H$_{28}$N$_{2}$O$_{3}$
,,,,,Dimepheptanol,C$_{21}$H$_{29}$NO
202,,,,,Baicalin,C$_{21}$H$_{18}$O
,,,,434.39,Engeletin,C$_{21}$H$_{22}$O$_{10}$
,,,,,ABT-202,C$_{9}$H$_{13}$N$_{3}$
1580,4.5,1600,0.0002448,233.43,Barium sulfate,BaSO$_{4}$
,,678.298,,,Coelenteramide,C$_{25}$H$_{21}$N$_{3}$O$_{3}$
,,,,,Diglycidyl ether,C$_{6}$H$_{10}$O$_{3}$
381,3.339,1390,27.5,150.892,Sodium bromate,NaBrO$_{3}$
,,,,,Delphinidin,C$_{15}$H$_{11}$O$^{+}_{7}$
,,,,,Apraclonidine,C$_{9}$H$_{10}$Cl$_{2}$N$_{4}$
,,,,,Carbuterol,C$_{13}$H$_{21}$N$_{3}$O$_{3}$
,,,,,Clonitazene,C$_{20}$H$_{23}$ClN$_{4}$O$_{2}$
,,,,,Lanatoside C,
,,,,,SDB-001,C$_{24}$H$_{32}$N$_{2}$O
442,,823,negligible,331.29,Thallium(I) iodide,TlI
,,,,,Clevudine,C$_{10}$H$_{13}$FN$_{2}$O$_{5}$
,,,,,Benzotriyne,C$_{6}$
,,,,,Mibolerone,C$_{20}$H$_{30}$O$_{2}$
,,,miscible,,Hydrazine,N$_{2}$H$_{4}$
,,,,,L-655 708,
,,,,,Orthoformic acid,CH$_{4}$O$_{3}$
,,,,,Ospemifene,C$_{24}$H$_{23}$ClO$_{2}$
,,36,Reacts,,Tert-Butyllithium,LiC$_{4}$H$_{9}$
,,,,,Chloropyramine,C$_{16}$H$_{20}$ClN$_{3}$
,,,,250.29,Corannulene,C$_{20}$H$_{10}$
,,,,,Teniposide,C$_{32}$H$_{32}$O$_{13}$S
1102,,,,,Magnesium silicide,Mg$_{2}$Si
,,,,,Palifermin,C$_{721}$H$_{1142}$N$_{202}$O$_{204}$S$_{9}$
,,,,450.39,Marein,C$_{21}$H$_{22}$O$_{11}$
,,,,,O-1918,C$_{19}$H$_{26}$O$_{2}$
,,,,,Calcium carbimide,
,,,,,Quinelorane,C$_{14}$H$_{22}$N$_{4}$
2344,8.64,3290,insoluble in water,382.56,Erbium(III) oxide,Er$_{2}$O$_{3}$
,,40,,,Deuterated dichloromethane,C$^{2}$H$_{2}$Cl$_{2}$
168-172,,,,194.18,Ferulic acid,C$_{10}$H$_{10}$O$_{4}$
,,-39.7,Reacts,103.9684,Phosphoryl fluoride,POF$_{3}$
1130,4.25,,"insoluble in cold water, soluble with addition of Chromium(II) ion salts, soluble in hot water",291.71,Chromium(III) bromide,CrBr$_{3}$
27.5,,285,miscible,120.17,Sulfolane,C$_{4}$H$_{8}$O$_{2}$S
137,,,"Soluble in water, ethanol, insoluble in xylene",,Methyl violet,C$_{24}$H$_{28}$N$_{3}$Cl
348.5-350,,,,,Scyllo-Inositol,C$_{6}$H$_{12}$O$_{6}$
,,,,,Enoxacin,C$_{15}$H$_{17}$FN$_{4}$O$_{3}$
,,,,,Coptisine,C$_{19}$H$_{14}$NO$_{4}$+
,,,,,Diampromide,C$_{21}$H$_{28}$N$_{2}$O
,,,,,Fluproquazone,C$_{18}$H$_{17}$FN$_{2}$O
,,,,,Lodenafil,C$_{47}$H$_{62}$N$_{12}$O$_{11}$S$_{2}$
,,,,,Sulfalene,C$_{11}$H$_{12}$N$_{4}$O$_{3}$S
,,,,,Norgestimate,C$_{23}$H$_{31}$NO$_{3}$
200-222,,586,Insoluble,,Quassin,C$_{22}$H$_{28}$O$_{6}$
,,,,242.27,Pinostilbene,C$_{15}$H$_{14}$O$_{3}$
884,,,,,Bismuth silicon oxide,Bi$_{12}$SiO$_{20}$
185-190,,,,167.12,Quinolinic acid,C$_{7}$H$_{5}$NO$_{4}$
,,,,,Protodioscin,C$_{51}$H$_{84}$O$_{22}$
,,,,,Taxillusin,C$_{28}$H$_{26}$O$_{16}$
,,,,,Tiflorex,C$_{12}$H$_{16}$F$_{3}$NS
,,,,253.337,Trisescaline,C$_{14}$H$_{23}$NO$_{3}$
,,,,215.21,Kinetin,C$_{10}$H$_{9}$N$_{5}$O
232-234,,,,,Harmaline,C$_{13}$H$_{14}$N$_{2}$O
,,,,,Chlortoluron,C$_{10}$H$_{13}$ClN$_{2}$O
,,,,,Noribogaine,C$_{19}$H$_{24}$N$_{2}$O
,,,,,Amperozide,C$_{23}$H$_{29}$F$_{2}$N$_{3}$O
,,,,,Propiverine,C$_{23}$H$_{29}$NO$_{3}$
,,,,,Letosteine,C$_{10}$H$_{17}$NO$_{4}$S$_{2}$
,,,,,Ibopamine,C$_{17}$H$_{25}$NO$_{4}$
,,,,,JWH-051,C$_{25}$H$_{38}$O$_{2}$
,,,,,Theodrenaline,C$_{17}$H$_{21}$N$_{5}$O$_{5}$
200,1.5,,soluble,151.905,Lithium hexafluorophosphate,LiPF$_{6}$
155-156,,,,372.37,Tangeritin,C$_{20}$H$_{20}$O$_{7}$
,,,,562.4123,Cadmium(I) tetrachloroaluminate,Cd$_{2}$Al$_{2}$Cl$_{8}$
,,,,,Actinidiolide,C$_{11}$H$_{14}$O$_{2}$
,,,,466.43,Curculigoside A,C$_{22}$H$_{26}$O$_{11}$
,,,,,Norelgestromin,C$_{21}$H$_{29}$NO$_{2}$
,,,,,Entacapone,C$_{14}$H$_{15}$N$_{3}$O$_{5}$
,,,Insoluble,394.719,Nitrogen triiodide,I$_{3}$N
172-174,,224-225,Slightly soluble,,Alpha-Phenylcinnamic acid,C$_{15}$H$_{12}$O$_{2}$
,,,,,Blisibimod,C$_{2836}$H$_{4376}$N$_{756}$O$_{858}$S$_{26}$
,,,,,Temafloxacin,C$_{21}$H$_{18}$F$_{3}$N$_{3}$O$_{3}$
,,,,,Riociguat,C$_{20}$H$_{19}$FN$_{8}$O$_{2}$
,,,,,UR-144,C$_{21}$H$_{29}$NO
15,1.012,148,soluble,,Acetoin,C$_{4}$H$_{8}$O$_{2}$
,,,,,Tung oil,C$_{2}$HF$_{5}$
,,,,,Ethacizine,C$_{22}$H$_{27}$N$_{3}$O$_{3}$S
,,,,314.28,Kumatakenin,C$_{17}$H$_{14}$O$_{6}$
,,,,,Acibenzolar,C$_{7}$N$_{2}$H$_{4}$S$_{2}$O
,,,,,SoRI-20041,C$_{29}$H$_{25}$N$_{3}$
,1.5,,none,,Cellulose,(C$_{6}$H$_{10}$O$_{5}$)N
>300,,,47,342.216,Sodium tetraphenylborate,(C$_{6}$H$_{5}$)$_{4}$BNa
,,,,,Bevirimat,C$_{36}$H$_{56}$O$_{6}$
,,,,,Bromazepam,C$_{14}$H$_{10}$BrN$_{3}$O
,,,,,Cefmenoxime,C$_{16}$H$_{17}$N$_{9}$O$_{5}$S$_{3}$
,,158,,,Syntin,C$_{10}$H$_{16}$
,,,,,Isocoproporphyrin,C$_{36}$H$_{38}$N$_{4}$O$_{8}$
,,,,235.325,F-22 (psychedelic),C$_{14}$H$_{21}$NO$_{2}$
51-52,1.348,decomposes at 160,4.2,,Pyrazophos,C$_{14}$H$_{20}$N$_{3}$O$_{5}$PS
-140,0.7$\pm$0.1,36.5,,,N N-Dimethylethylamine,C$_{4}$H$_{11}$N
,,,,,Methylenedioxymethylphenethylamine,C$_{10}$H$_{13}$NO$_{2}$
-164.5,,-73,,,Tetrafluorohydrazine,N$_{2}$F$_{4}$
,,,,,WAY-181 187,
,,,,,Dacarbazine,C$_{6}$H$_{10}$N$_{6}$O
,,,,80.1294,Disulfur monoxide,S$_{2}$O
,,,,,Flucytosine,C$_{4}$H$_{4}$FN$_{3}$O
-75,,198,,158.19,Butyric anhydride,C$_{8}$H$_{14}$O$_{3}$
,,,,,Icariin,C$_{33}$H$_{40}$O$_{15}$
-5.5,,191.4,$\geq$ 10,,Hexane-2 5-dione,C$_{6}$H$_{10}$O$_{2}$
,,,,,Piceatannol,C$_{14}$H$_{12}$O$_{4}$
,,,,194.27,Dibenzocycloheptene,C$_{15}$H$_{14}$
,,,,,Muromonab-CD3,C$_{6460}$H$_{9946}$N$_{1720}$O$_{2043}$S$_{56}$
280,1.566,,soluble,,Tetraethylammonium iodide,C$_{8}$H$_{20}$IN
,,,,,Isopropylphenidate,C$_{16}$H$_{23}$NO$_{2}$
,,,,802.53,Punigluconin,C$_{34}$H$_{26}$O$_{23}$
119,1.163,351.2,,,Cyanoacetamide,C$_{3}$H$_{4}$N$_{2}$O
,,,,,Flunarizine,C$_{26}$H$_{26}$F$_{2}$N$_{2}$
,,,,,CP-94253,C$_{15}$H$_{19}$N$_{3}$O
,,,,,OSU-6162,C$_{15}$H$_{23}$NO$_{2}$S
,,,,,LPD-824,C$_{20}$H$_{23}$N$_{3}$O
,,124,,,Copaene,C$_{15}$H$_{24}$
,,,,252.332,HEPPS (molecule),C$_{9}$H$_{20}$N$_{2}$O$_{4}$S
,,21,miscible,,Mevinphos,C$_{7}$H$_{13}$O$_{6}$P
169,,,,,Dimethylthiambutene,C$_{14}$H$_{17}$NS$_{2}$
,,,,,Azosemide,C$_{12}$H$_{11}$ClN$_{6}$O$_{2}$S$_{2}$
,,,,,Ro5-4864,C$_{16}$H$_{12}$Cl$_{2}$N$_{2}$O
,,,,,Phosphatidylinositol (3 4 5)-trisphosphate,C$_{47}$H$_{86}$O$_{22}$P$_{4}$
,,,Reacts with water,,Phenylmagnesium bromide,C$_{6}$H$_{5}$MgBr
,,,,318.49,Bilobol,C$_{21}$H$_{34}$O$_{2}$
,,,,420.5,Glycyrrhizol,C$_{26}$H$_{28}$O$_{5}$
3532-3540,6.73,5100,Insoluble,,Zirconium carbide,ZrC
,,,,,Quinine,C$_{20}$H$_{24}$N$_{2}$O$_{2}$
315-323,,,,254.23,Daidzein,C$_{15}$H$_{10}$O$_{4}$
896.85,,,insoluble,294.7,Silver(I) selenide,Ag$_{2}$Se
2730,,,,,Silicon carbide,CSi
125-130,,,,139.2,Triazabicyclodecene,C$_{7}$H$_{13}$N$_{3}$
270,1.363,,58.5,,Potassium sorbate,C$_{6}$H$_{7}$KO$_{2}$
330,,,,,Calmagite,C$_{17}$H$_{14}$N$_{2}$O$_{5}$S
-2,1.26,33,insoluble,,Dichloroacetylene,C$_{2}$Cl$_{2}$
,,,,197.31,Xenic acid,H$_{2}$XeO$_{4}$
734,2.74,1435,4.76,119.002,Potassium bromide,KBr
,,,,,Docosanol,C$_{22}$H$_{46}$O
,,,,,Uranyl chloride,UO$_{2}$Cl$_{2}$
,,,,,Norepinephrine,C$_{8}$H$_{11}$NO$_{3}$
221,1.54,,1.24,154.12,Protocatechuic acid,C$_{7}$H$_{6}$O$_{4}$
41.5,1.25,173,1,214.22,Phenyl salicylate,C$_{13}$H$_{10}$O$_{3}$
,,,,,Roquinimex,C$_{18}$H$_{16}$N$_{2}$O$_{3}$
,,,,,Metirosine,C$_{10}$H$_{13}$NO$_{3}$
,,,,,LY-272 015,
44,1.28,260,85,42.04,Cyanamide,CH$_{2}$N$_{2}$
,,,,,Mitiglinide,C$_{19}$H$_{25}$NO$_{3}$
175-180,1.25,,,,Paraquat,C$_{12}$H$_{14}$Cl$_{2}$N$_{2}$
,,,,,Ansoxetine,C$_{26}$H$_{25}$NO$_{3}$
,,,,,Hydroxycarteolol,C$_{16}$H$_{24}$N$_{2}$O$_{4}$
105,,,,,Isocitric acid,C$_{6}$H$_{8}$O$_{7}$
,,,,,Meclonazepam,C$_{16}$H$_{12}$ClN$_{3}$O$_{3}$
215,,639,,278.518,Tin(II) bromide,SnBr$_{2}$
,,,,,Ethulose,chemical_formulavariable
,,,,,Sofalcone,C$_{27}$H$_{30}$O$_{6}$
,,,,,Sodium bis(2-methoxyethoxy)aluminumhydride,C$_{6}$H$_{16}$AlNaO$_{4}$
51.5,,235,,,Para-Cresidine,C$_{8}$H$_{11}$NO
,,,,,Hydrochlorothiazide,C$_{7}$H$_{8}$ClN$_{3}$O$_{4}$S$_{2}$
43-45,,73-75,,,Bicyclo(2.2.1)heptane-2-carbonitrile,C$_{8}$H$_{11}$N
270,,,188,238.9792,Calcium perchlorate,Ca(ClO$_{4}$)$_{2}$
1200,4.25,,2.88,169.39,Barium sulfide,BaS
,,,,,CP 55 244,
,,,insoluble,,Cyclopentadiene,C$_{5}$H$_{6}$
13,,360,Insoluble,,Oleic acid,C$_{18}$H$_{34}$O$_{2}$
,,,,,Isoethcathinone,C$_{11}$H$_{15}$NO
,,,,,Tanezumab,C$_{6464}$H$_{9942}$N$_{1706}$O$_{2026}$S$_{46}$
40-42,,265-266,,152.15,Ortho-Vanillin,C$_{8}$H$_{8}$O$_{3}$
,,,,188.17942,Plumbagin,C$_{11}$H$_{8}$O$_{3}$
-111.61,1.539,46.24,0.258,,Carbon disulfide,CS$_{2}$
,,,,136.15,Piceol,C$_{8}$H$_{8}$O$_{2}$
,,,,,Naphthylpiperazine,C$_{14}$H$_{16}$N$_{2}$
,,70-72,,,Methyl chloroformate,C$_{2}$H$_{3}$ClO$_{2}$
152-155,,,Slight,142.11,Kojic acid,C$_{6}$H$_{6}$O$_{4}$
,3.353,,0.12,203.614,Strontium chromate,SrCrO$_{4}$
,,,,,RTI-113,C$_{21}$H$_{22}$ClNO$_{2}$
,,,not soluble,428.101,Molybdenum(II) acetate,C$_{8}$H$_{12}$Mo$_{2}$O$_{8}$
684,,934,,,Iron(II) bromide,FeBr$_{2}$
,,,,,JWH-193,C$_{26}$H$_{26}$N$_{2}$O$_{2}$
229.5,1.455,,H$_{2}$O,256.91,Nickel(II) acetylacetonate,C$_{10}$H$_{14}$NiO$_{4}$orC$_{30}$H$_{42}$Ni$_{3}$O$_{12}$(trimer)
248-255,,,,,Copper aspirinate,C$_{36}$H$_{28}$Cu$_{2}$O$_{16}$
,,,,,Trioxsalen,C$_{14}$H$_{12}$O$_{3}$
,,,,,Lumiracoxib,C$_{15}$H$_{13}$ClFNO$_{2}$
15-18,,,5,,Pirimiphos-methyl,C$_{11}$H$_{20}$N$_{3}$O$_{3}$PS
150,,,,37.95,Lithium aluminium hydride,LiAlH$_{4}$
,,,,178.05,Sodium malate,C$_{4}$H$_{4}$Na$_{2}$O$_{5}$
,,,,,Vemurafenib,C$_{23}$H$_{18}$ClF$_{2}$N$_{3}$O$_{3}$S
,,,,,Fura-2-acetoxymethyl ester,C$_{44}$H$_{47}$N$_{3}$O$_{24}$
56,1.057,,,203.28,N-Phenethyl-4-piperidinone,C$_{13}$H$_{17}$NO
,,,,,NAPQI,C$_{8}$H$_{7}$NO$_{2}$
620,,,,,Antimony trisulfide,Sb$_{2}$S$_{3}$
19,,189,,,Dimethyl sulfoxide,C$_{2}$H$_{6}$OS
194-195,,345,1,,Muconic acid,C$_{6}$H$_{6}$O$_{4}$
590,4.87,791,,379.84,Uranium tetrachloride,UCl$_{4}$
,,,,,Hexapropymate,C$_{10}$H$_{15}$NO$_{2}$
,,,,,Fenobam,C$_{11}$H$_{11}$ClN$_{4}$O$_{2}$
,,,,,Tetrahedrane,C$_{4}$H$_{4}$
,,,,325.27,N-Glycolylneuraminic acid,C$_{11}$H$_{19}$NO$_{10}$
687,,,84,205.92,Sodium molybdate,Na$_{2}$MoO$_{4}$
223,,,,,Aloe emodin,
,,,,,Tezacitabine,C$_{10}$H$_{12}$FN$_{3}$O$_{4}$
-8,,109-111,,,Methoxymethylfurfural,C$_{7}$H$_{8}$O$_{3}$
,,,,,Riboflavin,C$_{17}$H$_{20}$N$_{4}$O$_{6}$
,,,,,Deslorelin,C$_{64}$H$_{83}$N$_{17}$O$_{12}$
141,,,,,Lapyrium,C$_{21}$H$_{35}$N$_{2}$O$_{3}$
,,,,,Clorindione,C$_{15}$H$_{9}$ClO$_{2}$
,,,,,Ponatinib,C$_{23}$H$_{29}$N$_{3}$O$_{2}$
,,,Insoluble,,Cyclotetradecaheptaene,C$_{14}$H$_{14}$
,,,,,Fenpiverinium,C22H29N2O1charge+
172-175,,,,,Acetone thiosemicarbazone,C$_{4}$H$_{9}$N$_{3}$S
-90.86,,-88.48,1.5,44.013,Nitrous oxide,N$_{2}$O
,,,,261,Nitropentaamminecobalt(III) chloride,H$_{15}$N$_{6}$O$_{2}$Cl$_{2}$Co
192.4,2.48,120,43.9,133.34,Aluminium chloride,AlCl$_{3}$
,,,,295.8824,Calcium bromate,Ca(BrO$_{3}$)$_{2}$
,,,,,Zirconyl chloride,Cl$_{2}$OZr
,,,,401.54,Myriocin,C$_{21}$H$_{39}$NO$_{6}$
,,,,,Ferrate(VI),FeO$^{2-}_{4}$
,,,,,Nalidixic acid,
110,2.065,~ 125,327,189.36,Zinc nitrate,Zn(NO$_{3}$)$_{2}$
,,,,304.73,Arofylline,C$_{14}$H$_{13}$ClN$_{4}$O$_{2}$
,,,,,AM-679 (cannabinoid),
-64,,162,miscible,,Diglyme,C$_{6}$H$_{14}$O$_{3}$
,,,,,Ufenamate,C$_{18}$H$_{18}$F$_{3}$NO$_{2}$
,,,,,Phenacetin,C$_{10}$H$_{13}$NO$_{2}$
,,,,,Niguldipine,C$_{36}$H$_{39}$N$_{3}$O$_{6}$
,,,,,Convallamarin,C$_{57}$H$_{94}$O$_{27}$
,,,,,Clopenthixol,C$_{22}$H$_{25}$ClN$_{2}$OS
,,,,239.32,VM (nerve agent),C$_{9}$H$_{22}$NO$_{2}$PS
,,,,,Robenidine,C$_{15}$H$_{13}$Cl$_{2}$N$_{5}$
,,,,,MRS-1706,C$_{27}$H$_{29}$N$_{5}$O$_{5}$
,,,,,Metabutoxycaine,C$_{17}$H$_{28}$N$_{2}$O$_{3}$
54,,96,soluble,,N-Vinylacetamide,C$_{4}$H$_{7}$NO
,,,,,Demecolcine,C$_{21}$H$_{25}$NO$_{5}$
,,,,461.46,Morphine-6-glucuronide,C$_{23}$H$_{27}$NO$_{9}$
-26,,143,,,Ethyl chloroacetate,C$_{4}$H$_{7}$ClO$_{2}$
,,,130.98,340.38,Copper peptide GHK-Cu,C$_{14}$H$_{24}$N$_{6}$O$_{4}$
,,,,504.42,Raffinose,C$_{18}$H$_{32}$O$_{16}$
652.2-660,5.45,1085,0.57,,Silver sulfate,Ag$_{2}$SO$_{4}$
-10,,,,,BSTFA,C$_{8}$H$_{18}$F$_{3}$NOSi$_{2}$
,,,,,Levomethorphan,C$_{18}$H$_{25}$NO
,,,,,Bromhexine,C$_{14}$H$_{20}$Br$_{2}$N$_{2}$
,,,,,Etoposide,C$_{29}$H$_{32}$O$_{13}$
274,,,,,Acetoguanamine,C$_{4}$N$_{5}$H$_{7}$
,,,,,NESS-040C5,C$_{27}$H$_{33}$N$_{3}$OS
,,,,,Perhexiline,C$_{19}$H$_{35}$N
,,,,,Indeloxazine,C$_{14}$H$_{17}$NO$_{2}$
,,,,,BI 224436,
,,,,,JWH-424,C$_{24}$H$_{22}$BrNO
,,,,,Hemin,C$_{34}$H$_{32}$ClFeN$_{4}$O$_{4}$
59-62,,218,,464.08,Perfluorononanoic acid,C$_{9}$HF$_{17}$O$_{2}$
,,,,,Aminometradine,C$_{9}$H$_{13}$N$_{3}$O$_{2}$
,,,,,Oxomemazine,C$_{18}$H$_{22}$N$_{2}$O$_{2}$S
580,,,,,Antimony telluride,Sb$_{2}$Te$_{3}$
,,,,302.16,Uranium disulfide,US$_{2}$
-33,,288-292,,191.27,DEET,C$_{12}$H$_{17}$NO
,,,,837.62,Isobutyryl-CoA,C$_{25}$H$_{42}$N$_{7}$O$_{17}$P$_{3}$S
,,,,,Erlotinib,C$_{22}$H$_{23}$N$_{3}$O$_{4}$
,,,,509.43,Red 2G,C$_{18}$H$_{14}$N$_{2}$Na$_{2}$O$_{7}$S$_{2}$
,,,,174.26,Muscarine,C$_{9}$H$_{20}$NO$^{+}_{2}$
216,,,,,Pinoline,C$_{12}$H$_{14}$N$_{2}$O
,,,,,Malotilate,C$_{12}$H$_{16}$O$_{4}$S$_{2}$
153,,,,,Grubbs' catalyst,C$_{43}$H$_{72}$Cl$_{2}$P$_{2}$Ru
31-33,0.976,153,,,Guaiazulene,C$_{15}$H$_{18}$
,,,,,Chloromethyl chloroformate,C$_{2}$H$_{2}$Cl$_{2}$O$_{2}$
,,,,,Mesembrine,289.37
,,,,,Dihydroergocryptine,C$_{32}$H$_{43}$N$_{5}$O$_{5}$
,,,,207.23,NNK,C$_{10}$H$_{13}$N$_{3}$O$_{2}$
,,,,,Ethylphenidate,C$_{15}$H$_{21}$NO$_{2}$
,,,,,Glycopyrronium bromide,
,,,,,Ancarolol,C$_{18}$H$_{24}$N$_{2}$O$_{4}$
,,,,,Sulfiram,C$_{10}$H$_{20}$N$_{2}$S$_{3}$
,,,,,Doxepin,C$_{19}$H$_{21}$NO
183,,,,368.38,Curcuminoid,C$_{21}$H$_{20}$O$_{6}$
121.3,1.87,,Practically insoluble,,Isobenzan,C$_{9}$H$_{4}$Cl$_{8}$O
-15,0.9221,328,,238.4,Muscone,C$_{16}$H$_{30}$O
,,,,,Englitazone,C$_{20}$H$_{19}$NO$_{3}$S
,,,,,Ceftazidime,C$_{22}$H$_{22}$N$_{6}$O$_{7}$S$_{2}$
,,,,,Diclazuril,C$_{17}$H$_{9}$Cl$_{3}$N$_{4}$O$_{2}$
>2500,6.15,,Reacts.,83.73,Gallium nitride,GaN
280,1.872,,insoluble,110.968,Cobalt(II) cyanide,Co(CN)$_{2}$
,,,,,Briakinumab,C$_{6376}$H$_{9874}$N$_{1722}$O$_{1992}$S$_{44}$
decomposes at 1000,11.4,,insoluble,218.206,Rhenium(IV) oxide,ReO$_{2}$
,,,,,Cannabicyclohexanol,C$_{22}$H$_{36}$O$_{2}$
,,285,10,,Vanillin,C$_{8}$H$_{8}$O$_{3}$
,,,,858.85,Thymulin,C$_{33}$H$_{54}$N$_{12}$O$_{15}$
,,,,,Lithium methoxide,CH$_{3}$LiO
508,3.465,520,Highly,168.82,Beryllium bromide,BeBr$_{2}$
,,,,,Lonafarnib,C$_{27}$H$_{31}$Br$_{2}$ClN$_{4}$O$_{2}$
,,,,,Aminoglutethimide,C$_{13}$H$_{16}$N$_{2}$O$_{2}$
120,,,,,Pyridinium p-toluenesulfonate,C$_{12}$H$_{13}$NO$_{3}$S
,,,,,Trazodone,C$_{19}$H$_{22}$ClN$_{5}$O
,,,,,Imidazenil,C$_{18}$H$_{12}$BrFN$_{4}$O
,,,,80.55,Copper(I) hydroxide,CuOH
,,,,,Doxofylline,C$_{11}$H$_{14}$N$_{4}$O$_{4}$
,,,,,RJR-2429,C$_{12}$H$_{16}$N$_{2}$
,,,,,Aristolochene,C$_{15}$H$_{24}$
100,1.009,,45.3,37.037,Ammonium fluoride,NH$_{4}$F
,,,,1066.74,Grandinin,C$_{46}$H$_{34}$O$_{30}$
142,,288,,,Dimethyl terephthalate,C$_{10}$H$_{10}$O$_{4}$
,,,,,Paracoumaryl alcohol,C$_{9}$H$_{10}$O$_{2}$
,,,,,Hesperidin,C$_{28}$H$_{34}$O$_{15}$
,,,,,Nepinalone,C$_{18}$H$_{25}$NO
,,,,,Gestonorone,C$_{20}$H$_{28}$O$_{3}$
,,,,,Diprenorphine,C$_{26}$H$_{35}$NO$_{4}$
1915,,,,124.91,Niobium dioxide,NbO$_{2}$
1080,6.45,,insoluble,134.709,Tin(II) oxide,SnO
-140.3,,-6.9,Insoluble,56.106,Isobutylene,C$_{4}$H$_{8}$
,,,,,Clobenpropit,C$_{14}$H$_{17}$ClN$_{4}$S
,,,,,Cantharidic acid,
,,,,,BAY 73-6691,
,,,,284.26,Oroxylin A,C$_{16}$H$_{12}$O$_{5}$
,,,,,NGD-4715,C$_{19}$H$_{24}$BrN$_{3}$O$_{3}$
,,,,,AC927,C$_{13}$H$_{19}$N
,,,,396.69,Cerotic acid,C$_{26}$H$_{52}$O$_{2}$
310,,707,,,Arsenic trisulfide,As$_{2}$S$_{3}$
,0.9734,70,,150.21,Safranal,C$_{10}$H$_{14}$O
,,,,338.4,URB597,C$_{20}$H$_{22}$N$_{2}$O$_{3}$
,,,,186.17,Sodium maleonitriledithiolate,C$_{4}$N$_{2}$Na$_{2}$S$_{2}$
,,,,680.69,Miyabenol C,C$_{42}$H$_{32}$O$_{9}$
2030,6.26,,,152.11,Molybdenum disilicide,MoSi$_{2}$
-108,1.723,49,,,Novec 1230,C$_{6}$F$_{12}$O
,,,,,Dihydrotachysterol,C$_{28}$H$_{46}$O
,,,,266.2,Bifuhalol,C$_{12}$H$_{10}$O$_{7}$
,,,,,Tiapride,C$_{15}$H$_{24}$N$_{2}$O$_{4}$S
,,,,,Staurosporine,C$_{28}$H$_{26}$N$_{4}$O$_{3}$
499,4.914,431,,598.842,Zirconium(IV) iodide,ZrI$_{4}$
-21,1.1288,221,negligible,135.19,Phenyl isothiocyanate,C$_{7}$H$_{5}$NS
,,,,,Mitoxantrone,C$_{22}$H$_{28}$N$_{4}$O$_{6}$
,,,,,Magnesium orotate,
,,,,,Myristicin,C$_{11}$H$_{12}$O$_{3}$
,,,,,Sodium picosulfate,
,,,,378,Praseodymium(III) sulfide,Pr$_{2}$S$_{3}$
,,,Soluble,,Erythrulose,C$_{4}$H$_{8}$O$_{4}$
,0.855,201-207,,154.25,Citronellal,C$_{10}$H$_{18}$O
,,,,,Clavulanic acid,
,,,,,BSPP (drug),
,,,,,Acutifolin A,C$_{20}$H$_{22}$O$_{4}$
45,,,,,Comins' reagent,C$_{7}$H$_{3}$ClF$_{6}$N$_{2}$O$_{4}$S$_{2}$
,,138,,,Bromoiodomethane,CH$_{2}$BrI
,,,,,Gitoformate,C$_{46}$H$_{64}$O$_{19}$
,,,soluble (33.3-100 g/L),458.372,Epigallocatechin gallate,C$_{22}$H$_{18}$O
-18,1.89,190,,207.32,Lewisite,C$_{2}$H$_{2}$AsCl$_{3}$
,,,,,Alpha 1-antitrypsin,
,,,,94.11,Oxanorbornadiene,C$_{6}$H$_{6}$O
,,,,466.15,Neosalvarsan,C$_{13}$H$_{13}$As$_{2}$N$_{2}$NaO$_{4}$S
287,1.635,,4.3,,Fumaric acid,C$_{4}$H$_{4}$O$_{4}$
,,,,,Vigabatrin,C$_{6}$H$_{11}$NO$_{2}$
,1.02,,Miscible,,Methylchloroisothiazolinone,C$_{4}$H$_{4}$ClNOS
,,,,,Acipimox,C$_{6}$H$_{6}$N$_{2}$O$_{3}$
,,,,,Cellulose diacetate,variable
252,,,,,Triptycene,C$_{20}$H$_{14}$
,,,,,PF-00446687,C$_{28}$H$_{36}$F$_{2}$N$_{2}$O$_{2}$
,,,,,Methadone,C$_{21}$H$_{27}$NO
132-137,1.31,344,Soluble,,Benzoin,C$_{14}$H$_{12}$O$_{2}$
,,,,,LY-307 452,
,,,,,Thiocarlide,C$_{23}$H$_{32}$N$_{2}$O$_{2}$S
,,,,,JWH-081,C$_{25}$H$_{25}$NO$_{2}$
,,,,,Adipiplon,C$_{18}$H$_{18}$FN$_{7}$
-96,,152,negligible,,Cumene,C$_{9}$H$_{12}$
,,,,,Acetylcholine,C$_{7}$H$_{16}$NO$^{+}_{2}$
,,,,,Exenatide,C$_{184}$H$_{282}$N$_{50}$O$_{60}$S
,,,,,Pirenzepine,C$_{19}$H$_{21}$N$_{5}$O$_{2}$
,,,,161.95,Monosodium methyl arsenate,CH$_{4}$AsNaO$_{3}$
,,,,,Mibefradil,C$_{29}$H$_{38}$FN$_{3}$O$_{3}$
,,,,,Fluminorex,C$_{10}$H$_{9}$F$_{3}$N$_{2}$O
,,,,918.97,Alpha-Amanitin,C$_{39}$H$_{54}$N$_{10}$O$_{14}$S
,,,,819.3994,Magnesium laureth sulfate,(C$_{12}$H$_{26}$SO$_{4}$(C$_{2}$H$_{4}$O)$_{n}$)$_{2}$Mg
,,,,,Thioridazine,C$_{21}$H$_{26}$N$_{2}$S$_{2}$
,,,,,Ifosfamide,C$_{7}$H$_{15}$Cl$_{2}$N$_{2}$O$_{2}$P
,,,,326.29,P-Coumaric acid glucoside,C$_{15}$H$_{18}$O$_{8}$
,,,,,Butallylonal,C$_{11}$H$_{15}$BrN$_{2}$O$_{3}$
,,,,,Orthocaine,C$_{8}$H$_{9}$NO$_{3}$
,,,,,Sinomenine,C$_{19}$H$_{23}$NO$_{4}$
,,,,,Prazosin,C$_{19}$H$_{21}$N$_{5}$O$_{4}$
,,,,221.29,Alchorneine,C$_{12}$H$_{19}$N$_{3}$O
,,,in oily solutes,626.01,Rafoxanide,C$_{19}$H$_{11}$Cl$_{2}$I$_{2}$NO$_{3}$
246,1.27,sublimes at 110-120,,176.212,Metaldehyde,C$_{8}$H$_{16}$O$_{4}$
,,,,,Ketotifen,C$_{19}$H$_{19}$NOS
,,,,,Afegostat,C$_{6}$H$_{13}$NO$_{3}$
91-93,,,organic solvents,97.07,Maleimide,C$_{4}$H$_{3}$NO$_{2}$
,,,,,Brompheniramine,C$_{16}$H$_{19}$BrN$_{2}$
,,,,,ISRIB,C$_{22}$H$_{24}$Cl$_{2}$N$_{2}$O$_{4}$
199-200,,,,,Isorenieratene,C$_{40}$H$_{48}$
,,,,,Bergapten,C$_{12}$H$_{8}$O$_{4}$
-49,$\alpha$: 0.933,126-128,,192.3,Ionone,C$_{13}$H$_{20}$O
125,,,,515.7058,Taurocholic acid,C$_{26}$H$_{45}$NO$_{7}$S
-63.5,1.564,61.15,1.062,,Chloroform,CHCl$_{3}$
,,,,,Unifiram,C$_{13}$H$_{15}$FN$_{2}$O$_{3}$S
,,50-60,,154.25,Grandisol,C$_{10}$H$_{18}$O
,,,,,Tixocortol,C$_{21}$H$_{30}$O$_{4}$S
,,,,,Rhodium carbonyl chloride,C$_{4}$O$_{4}$Cl$_{2}$Rh$_{2}$
280,,,Insoluble,,Thioindigo,C$_{16}$H$_{8}$O$_{2}$S$_{2}$
137-140,,,,,Bis(pinacolato)diboron,C$_{12}$H$_{24}$B$_{2}$O$_{4}$
,,,,,EDANS,C$_{12}$H$_{14}$N$_{2}$O$_{3}$S
,,,,,Darodipine,C$_{19}$H$_{21}$N$_{3}$O$_{5}$
,,,,,Zacopride,C$_{15}$H$_{20}$ClN$_{3}$O$_{2}$
,,,,,Tertatolol,C$_{16}$H$_{25}$NO$_{2}$S