Name,formula,Property Molar Mass,Property Molar Mass units,Property Melting Point,Property Melting Point units,Property Density,Property Density units,Property Boiling Point,Property Boiling Point units,Property Solubility
Tetralin,C$_{10}$H$_{12}$,,,-35.8,$^{\circ}$C,0.970,g/cm$^{3}$,206,$^{\circ}$C,Insoluble
Metitepine,C$_{20}$H$_{24}$N$_{2}$S$_{2}$,,,,,,,,,
Methcathinone,C$_{10}$H$_{13}$NO,,,,,,,,,
Embutramide,C$_{17}$H$_{27}$NO$_{3}$,,,,,,,,,
Methyldihydromorphine,C$_{18}$H$_{23}$NO$_{3}$,,,,,,,,,
Clotiazepam,C$_{16}$H$_{15}$ClN$_{2}$OS,,,,,,,,,
Tetrapropylammonium perruthenate,C$_{12}$H$_{28}$NRuO$_{4}$,351.43,g/mol,160,$^{\circ}$C,,,,,
Ivabradine,C$_{27}$H$_{36}$N$_{2}$O$_{5}$,,,,,,,,,
Iratumumab,C$_{6358}$H$_{9830}$N$_{1682}$O$_{1992}$S$_{38}$,,,,,,,,,
Penimepicycline,C$_{45}$H$_{56}$N$_{6}$O$_{14}$S,,,,,,,,,
Protopine,C$_{20}$H$_{19}$NO$_{5}$,353.369,g/mol,208,$^{\circ}$C,1.399,g/cm$^{3}$,,,practically insoluble
Gallopamil,C$_{28}$H$_{40}$N$_{2}$O$_{5}$,,,,,,,,,
Methyl blue,C$_{37}$H$_{27}$N$_{3}$Na$_{2}$O$_{9}$S$_{3}$,799.814,g/mol,,,,,,,"Soluble in water, slightly soluble in ethanol"
Methyl caffeate,C$_{10}$H$_{10}$O$_{4}$,194.18,g/mol,,,,,,,
Ibacitabine,C$_{9}$H$_{12}$IN$_{3}$O$_{4}$,,,,,,,,,
Roxarsone,C$_{6}$AsNH$_{6}$O$_{6}$,,,>300,$^{\circ}$C,,,,,
Ro60-0175,C$_{11}$H$_{12}$ClFN$_{2}$,,,,,,,,,
Losoxantrone,C$_{22}$H$_{27}$N$_{5}$O$_{4}$,,,,,,,,,
Cysteine,C$_{3}$H$_{7}$NO$_{2}$S,,,240,$^{\circ}$C,,,,,soluble
Chlorflurazole,C$_{8}$H$_{3}$Cl$_{2}$F$_{3}$N$_{2}$,255.02,g/mol,,,,,,,
Arseno$\beta$ine,C$_{5}$H$_{11}$AsO$_{2}$,,,,,,,,,
Ipratropium bromide,,,,,,,,,,
Bromine azide,BrN$_{3}$,121.924,g/mol,,,,,,,
Chloroxine,C$_{9}$H$_{5}$Cl$_{2}$NO,,,,,,,,,
Phosphorous acid,H$_{3}$PO$_{3}$,82.00,g/mol,73.6,$^{\circ}$C,1.651,g/cm$^{3}$,200,$^{\circ}$C,310
Lithium metasilicate,Li$_{2}$SiO$_{3}$,89.566,g/mol,1201,$^{\circ}$C,2.52,g/cm$^{3}$,,,insoluble
Binedaline,C$_{19}$H$_{24}$ClN$_{3}$,,,,,,,,,
Tantalum hafnium carbide,Ta$_{4}$HfC$_{5}$,,,4215,$^{\circ}$C,,,,,
Isothipendyl,C$_{16}$H$_{19}$N$_{3}$S,,,,,,,,,
Perhydropyrene,C$_{16}$H$_{26}$,,,,,,,,,
Cypermethrin,C$_{22}$H$_{19}$Cl$_{2}$NO$_{3}$,416.30,g/mol,,,,,,,
Mepitiostane,C$_{25}$H$_{40}$O$_{2}$S,,,,,,,,,
Adrenochrome,C$_{9}$H$_{9}$NO$_{3}$,,,,,3.264,g/cm$^{3}$,,,
Lercanidipine,C$_{36}$H$_{41}$N$_{3}$O$_{6}$,,,,,,,,,
Zirconium(IV) silicate,O$_{4}$SiZr,,,2550,$^{\circ}$C,,,,,
Hydroxylamine,H$_{3}$NO,,,33,$^{\circ}$C,,,58,$^{\circ}$C,
P-Xylene,C$_{8}$H$_{10}$,,,13.2,$^{\circ}$C,,,138.35,$^{\circ}$C,insoluble
Boron carbide,B$_{4}$C,55.255,g/mol,2763,$^{\circ}$C,,,3500,$^{\circ}$C,insoluble
Iofendylate,C$_{19}$H$_{29}$IO$_{2}$,,,,,,,,,
Decene,C$_{10}$H$_{20}$,,,-66.3,$^{\circ}$C,0.74,g/cm$^{3}$,172,$^{\circ}$C,
Syringic acid,C$_{9}$H$_{10}$O$_{5}$,,,,,,,,,
S-14 506,C$_{24}$H$_{26}$FN$_{3}$O$_{2}$,,,,,,,,,
Flutemazepam,C$_{16}$H$_{12}$ClFN$_{2}$O$_{2}$,,,,,,,,,
Primuline,C$_{21}$H$_{15}$N$_{3}$O$_{3}$S$_{3}$(freeacid),453.557,g/mol,,,,,,,
Triethylcholine,C$_{8}$H$_{20}$NO,,,,,,,,,
Chlorophyllin,C$_{34}$H$_{31}$CuN$_{4}$Na$_{3}$O$_{6}$,724.15,g/mol,,,,,,,
Pamoic acid,C$_{23}$H$_{16}$O$_{6}$,,,$\geq$300,$^{\circ}$C,,,,,
Decalin,C$_{10}$H$_{18}$,138.25,g/mol,trans:-30.4,$^{\circ}$C,0.896,g/cm$^{3}$,trans: 187,$^{\circ}$C,Insoluble
Gatifloxacin,C$_{19}$H$_{22}$FN$_{3}$O$_{4}$,,,,,,,,,
Anthraquinone,C$_{14}$H$_{8}$O$_{2}$,,,286,$^{\circ}$C,1.308,g/cm$^{3}$,379.8,$^{\circ}$C,insoluble
Imipenem,C$_{12}$H$_{17}$N$_{3}$O$_{4}$S,,,,,,,,,
Prostaglandin E2,,,,,,,,,,
Zinc antimonide,"ZnSb,Zn$_{3}$Sb$_{2}$,Zn$_{4}$Sb$_{3}$",434.06,g/mol,546,$^{\circ}$C,6.33,g/cm$^{3}$,,,reacts
Perosamine,C$_{6}$H$_{13}$NO$_{4}$,163.172,g/mol,,,,,,,
RS-67 333,,,,,,,,,,
Pentyl propanoate,C$_{8}$H$_{16}$O$_{2}$,144.22,g/mol,-75,$^{\circ}$C,0.870,g/cm$^{3}$,168,$^{\circ}$C,
Rocuronium bromide,,,,,,,,,,
PF-4800567,C$_{17}$H$_{18}$ClN$_{5}$O$_{2}$,,,,,,,,,
Luminol,C$_{8}$H$_{7}$N$_{3}$O$_{2}$,177.16,g/mol,319,$^{\circ}$C,,,,,
Uranium pentachloride,UCl$_{5}$,415.29,g/mol,,,,,,,
Metaflumizone,C$_{24}$H$_{16}$F$_{6}$N$_{4}$O$_{2}$,,,,,,,,,
Etoricoxib,C$_{18}$H$_{15}$ClN$_{2}$O$_{2}$S,,,,,,,,,
Paramenthane hydroperoxide,C$_{10}$H$_{20}$O$_{2}$,,,,,,,,,
Neopentane,C$_{5}$H$_{12}$,,,,,,,,,
Fenoprop,C$_{9}$H$_{7}$Cl$_{3}$O$_{3}$,,,181.6,$^{\circ}$C,,,,,
Uranium monosulfide,US,270.095,g/mol,,,,,,,
Zuclopenthixol,C$_{22}$H$_{25}$ClN$_{2}$OS,,,,,,,,,
JWH-116,C$_{26}$H$_{27}$NO,,,,,,,,,
Albinterferon,C$_{3796}$H$_{5937}$N$_{1015}$O$_{1143}$S$_{50}$,,,,,,,,,
Canbisol,C$_{24}$H$_{38}$O$_{3}$,,,,,,,,,
Benzofuran,C$_{8}$H$_{6}$O,,,-18,$^{\circ}$C,,,173,$^{\circ}$C,
Aziridine,C$_{2}$H$_{5}$N,,,-77.9,$^{\circ}$C,,,56,$^{\circ}$C,miscible
Nogalamycin,C$_{39}$H$_{49}$NO$_{16}$,787.80,g/mol,,,,,,,
JNJ-26990990,C$_{9}$H$_{10}$N$_{2}$O$_{2}$S$_{2}$,,,,,,,,,
IDRA-21,C$_{8}$H$_{9}$ClN$_{2}$O$_{2}$S,,,,,,,,,
Calcium fumarate,CaC$_{4}$H$_{2}$O$_{4}$,,,,,,,,,
Codeine,C$_{18}$H$_{21}$NO$_{3}$,,,,,,,,,
Piboserod,C$_{22}$H$_{31}$N$_{3}$O$_{2}$,,,,,,,,,
Praziquantel,C$_{19}$H$_{24}$N$_{2}$O$_{2}$,,,,,,,,,
Perbromic acid,HBrO$_{4}$,,,,,,,,,
Solasonine,C$_{45}$H$_{73}$NO$_{16}$,884.1,g/mol,,,,,,,
Normetanephrine,C$_{9}$H$_{13}$NO$_{3}$,183.204,g/mol,,,,,,,
Piperitone,C$_{10}$H$_{16}$O,152.23,g/mol,232-233,$^{\circ}$C,0.9331,g/cm$^{3}$,,,
Uranyl fluoride,UO$_{2}$F$_{2}$,308.02,g/mol,Decomposes @ 300,$^{\circ}$C,,,,,
Remifentanil,C$_{20}$H$_{28}$N$_{2}$O$_{5}$,,,,,,,,,
Propionyl-CoA,C$_{24}$H$_{40}$N$_{7}$O$_{17}$P$_{3}$S,823.60,g/mol,,,,,,,
GW0742,C$_{21}$H$_{17}$F$_{4}$NO$_{3}$S$_{2}$,,,,,,,,,
Armodafinil,C$_{15}$H$_{15}$NO$_{2}$S,,,,,,,,,
Methyl eugenol,C$_{11}$H$_{14}$O$_{2}$,,,,,0.98,g/cm$^{3}$,,,
Iron(II) chromite,FeCr$_{2}$O$_{4}$,223.83,g/mol,2190-2270,$^{\circ}$C,4.97,g/cm$^{3}$,,,insoluble
Betamipron,C$_{10}$H$_{11}$NO$_{3}$,,,,,,,,,
Clofibric acid,C$_{10}$H$_{11}$ClO$_{3}$,214.645,g/mol,118-123,$^{\circ}$C,,,,,
Nitrazepam,C$_{15}$H$_{11}$N$_{3}$O$_{3}$,,,,,,,,,
Phosphatidylinositol 3-phosphate,C$_{11}$H$_{20}$O$_{16}$P$_{2}$,,,,,,,,,
Lead(II) hydroxide,Pb(OH)$_{2}$,241.21,g/mol,135,$^{\circ}$C,7.41,g/cm$^{3}$,,,1.55
Chromium(III) sulfate,Cr$_{2}$(SO$_{4}$)$_{3}$.12H$_{2}$O,392.16,g/mol,90,$^{\circ}$C,3.10,g/cm$^{3}$,,,insoluble
Benzylmorphine,C$_{24}$H$_{25}$NO$_{3}$,,,,,,,,,
Trimethyl phosphite,C$_{3}$H$_{9}$O$_{3}$P,,,-78,$^{\circ}$C,,,111,$^{\circ}$C,reacts
Axillarin,C$_{17}$H$_{14}$O$_{8}$,346.28,g/mol,,,,,,,
Leukotriene A4,C$_{20}$H$_{30}$O$_{3}$,,,,,,,,,
Sodium sulfite,Na$_{2}$SO$_{3}$,126.043,g/mol,33.4,$^{\circ}$C,2.633,g/cm$^{3}$,,,27.0
Sodium aluminium phosphate,NaH$_{14}$Al$_{3}$(PO$_{4}$)$_{8}$.4H$_{2}$O,144.943,g/mol,,,,,,,insoluble
Brotizolam,C$_{15}$H$_{10}$BrClN$_{4}$S,,,,,,,,,
Spectinomycin,C$_{14}$H$_{24}$N$_{2}$O$_{7}$,,,,,,,,,
Eugenin,C$_{11}$H$_{10}$O$_{4}$,206.19,g/mol,,,,,,,
Uranium disilicide,USi$_{2}$,294.199,g/mol,,,,,,,
N N'-Dimethyl-1 3-propanediamine,C$_{5}$H$_{14}$N$_{2}$,,,,,,,145,$^{\circ}$C,
Nitroglycerin,C$_{3}$H$_{5}$N$_{3}$O$_{9}$,,,14,$^{\circ}$C,,,50,$^{\circ}$C,slightly
Thymolphthalein,C$_{28}$H$_{30}$O$_{4}$,,,248-252,$^{\circ}$C,,,,,
Atrazine,C$_{8}$H$_{14}$ClN$_{5}$,,,175,$^{\circ}$C,1.187,g/cm$^{3}$,200,$^{\circ}$C,7
Ethyl pentanoate,C$_{7}$H$_{14}$O$_{2}$,130.18,g/mol,-91,$^{\circ}$C,,,145-146,$^{\circ}$C,
Diethyl malonate,C$_{7}$H$_{12}$O$_{4}$,160.17,g/mol,-50,$^{\circ}$C,,,199,$^{\circ}$C,negligible
Coenzyme B,C$_{11}$H$_{22}$NO$_{7}$PS,,,,,,,,,
Sunepitron,C$_{17}$H$_{23}$N$_{5}$O$_{2}$,,,,,,,,,
Coumarin,C$_{9}$H$_{6}$O$_{2}$,,,71,$^{\circ}$C,0.935,g/cm$^{3}$,301.71,$^{\circ}$C,0.17
LSAT (oxide),(LaAlO$_{3}$)$_{0.3}$(Sr$_{2}$TaAlO$_{6}$)$_{0.7}$,,,1840,$^{\circ}$C,6.74,g/cm$^{3}$,,,
Cycloartenol,C$_{30}$H$_{50}$O,426.72,g/mol,,,,,,,
Methylglyoxal,C$_{3}$H$_{4}$O$_{2}$,,,,,1.046,g/cm$^{3}$,72,$^{\circ}$C,
Quinisocaine,C$_{17}$H$_{24}$N$_{2}$O,,,,,,,,,
Disodium hydrogen arsenate,H$_{15}$Na$_{2}$AsO$_{11}$(HePTaH$_{y}$DRaTe),312.01,g/mol,,,,,,,good
Methyldichloroarsine,CH$_{3}$AsCl$_{2}$,,,-55,$^{\circ}$C,1.836,g/cm$^{3}$,133,$^{\circ}$C,reacts
Vitamin D5,C$_{29}$H$_{48}$O,,,,,,,,,
Ergocornine,C$_{31}$H$_{39}$N$_{5}$O$_{5}$,,,,,,,,,
Ethotoin,C$_{11}$H$_{12}$N$_{2}$O$_{2}$,,,,,,,,,
Dexloxiglumide,C$_{21}$H$_{30}$Cl$_{2}$N$_{2}$O$_{5}$,,,,,,,,,
Sodium formate,HCOONa,68.007,g/mol,253,$^{\circ}$C,1.92,g/cm$^{3}$,,,43.82
Linalyl acetate,C$_{12}$H$_{20}$O$_{2}$,,,85,$^{\circ}$C,0.895,g/cm$^{3}$,220,$^{\circ}$C,Insoluble
Uranyl hydroxide,UH$_{2}$O$_{4}$,,,,,,,,,
Ergocalciferol,C$_{28}$H$_{44}$O,396.65,g/mol,114-118,$^{\circ}$C,,,,,
Silver(I) fluoride,AgF,,,435,$^{\circ}$C,5.852,g/cm$^{3}$,1159,$^{\circ}$C,85.78
Tenuazonic acid,C$_{10}$H$_{15}$NO$_{3}$,,,,,,,,,
Metalaxyl,C$_{15}$H$_{21}$NO$_{4}$,279.33,g/mol,71-72,$^{\circ}$C,,,295.9,$^{\circ}$C,8400
Sulforidazine,C$_{21}$H$_{26}$N$_{2}$O$_{2}$S$_{2}$,,,,,,,,,
Propamocarb,C$_{9}$H$_{20}$N$_{2}$O$_{2}$,,,,,0.957,g/cm$^{3}$,,,
Benzedrone,C$_{17}$H$_{19}$NO,,,,,,,,,
Pipermethystine,C$_{16}$H$_{17}$NO$_{4}$,287.31,g/mol,,,,,,,
Entolimod,C$_{1464}$H$_{2419}$N$_{457}$O$_{519}$S$_{8}$,,,,,,,,,
Yohimban,C$_{19}$H$_{24}$N$_{2}$,,,,,,,,,
SB-357134,C$_{17}$H$_{18}$Br$_{2}$FN$_{3}$O$_{3}$S,,,,,,,,,
Polyvinyl alcohol,(C$_{2}$H$_{4}$O)$_{x}$,,,200,$^{\circ}$C,1.19-1.31,g/cm$^{3}$,228,$^{\circ}$C,
Homophthalic acid,C$_{9}$H$_{8}$O$_{4}$,,,181,$^{\circ}$C,,,,,
INT (chemical),C$_{19}$H$_{13}$ClIN$_{5}$O$_{2}$,,,240,$^{\circ}$C,,,,,
Dicloxacillin,C$_{19}$H$_{17}$Cl$_{2}$N$_{3}$O$_{5}$S,,,,,,,,,
Magnesium chloride,MgCl$_{2}$,95.211,g/mol,714,$^{\circ}$C,2.32,g/cm$^{3}$,1412,$^{\circ}$C,anhydrous 52.9
Naphthalen-1 8-diyl 1 3 2 4-dithiadiphosphetane 2 4-disulfide,C$_{10}$H$_{6}$P$_{2}$S$_{4}$,,,,,,,,,
Indane,C$_{9}$H$_{10}$,118.176,g/mol,,,,,176.5,$^{\circ}$C,
Ifenprodil,C$_{21}$H$_{27}$NO$_{2}$,,,,,,,,,
Flavoxate,C$_{24}$H$_{25}$NO$_{4}$,,,,,,,,,
Para-Azoxyanisole,C$_{14}$H$_{14}$N$_{2}$O$_{3}$,258.27,g/mol,114.9,$^{\circ}$C,,,417.9,$^{\circ}$C,
Masoprocol,C$_{18}$H$_{22}$O$_{4}$,,,,,,,,,
Saquinavir,C$_{38}$H$_{50}$N$_{6}$O$_{5}$,,,,,,,,,
N N'-Diisopropylcarbodiimide,C$_{7}$H$_{14}$N$_{2}$,,,,,,,145-148,$^{\circ}$C,
Phellodendrine,C$_{20}$H$_{24}$NO$_{4}$,342.4083,g/mol,258,$^{\circ}$C,,,,,
Nisoldipine,C$_{20}$H$_{24}$N$_{2}$O$_{6}$,,,,,,,,,
Cocaethylene,C$_{18}$H$_{23}$NO$_{4}$,,,,,,,,,
Bromoacetic acid,C$_{2}$H$_{3}$BrO$_{2}$,,,49-51,$^{\circ}$C,,,206-208,$^{\circ}$C,
Dihydroactinidiolide,C$_{11}$H$_{16}$O$_{2}$,180.24,g/mol,,,,,,,
Epomediol,C$_{10}$H$_{18}$O$_{3}$,,,,,,,,,
Sulfabenzamide,C$_{23}$H$_{26}$N$_{2}$O$_{5}$,,,,,,,,,
Pinoresinol,C$_{20}$H$_{22}$O$_{6}$,358.38,g/mol,,,,,,,
Trimetozine,C$_{14}$H$_{19}$NO$_{5}$,,,,,,,,,
Vanadium(III) sulfate,V$_{2}$(SO$_{4}$)$_{3}$,390.074,g/mol,400,$^{\circ}$C,,,,,slightly soluble
Arbaclofen placarbil,,,,,,,,,,
Hydroxyzine,C$_{21}$H$_{27}$ClN$_{2}$O$_{2}$,,,,,,,,,
Zolamine,C$_{15}$H$_{21}$N$_{3}$OS,,,,,,,,,
Cinoxacin,C$_{12}$H$_{10}$N$_{2}$O$_{5}$,,,,,,,,,
Cymserine,C$_{23}$H$_{29}$N$_{3}$O$_{2}$,,,,,,,,,
Sarmazenil,C$_{15}$H$_{14}$ClN$_{3}$O$_{3}$,,,,,,,,,
Gossypol,C$_{30}$H$_{30}$O$_{8}$,518.563,g/mol,177-182,$^{\circ}$C,,,707,$^{\circ}$C,
Buphedrone,C$_{11}$H$_{15}$NO,,,,,,,,,
Germanium difluoride,GeF$_{2}$,110.61,g/mol,110,$^{\circ}$C,3.61,g/cm$^{3}$,130,$^{\circ}$C,
Lepidolide,C$_{30}$H$_{40}$O$_{6}$,,,,,,,,,
Polyglycolide,(C$_{2}$H$_{2}$O$_{2}$)$_{n}$,,,225-230,$^{\circ}$C,,,,,
Phensuximide,C$_{11}$H$_{11}$NO$_{2}$,,,,,,,,,
CSP-2503,C$_{22}$H$_{26}$N$_{4}$O$_{2}$,,,,,,,,,
Flopropione,C$_{9}$H$_{10}$O$_{4}$,,,,,,,,,
Levacetylmethadol,C$_{23}$H$_{31}$NO$_{2}$,,,,,,,,,
EHNA,C$_{14}$H$_{24}$ClN$_{5}$O,,,,,,,,,
Trost ligand,C$_{44}$H$_{40}$N$_{2}$O$_{2}$P$_{2}$,690.75,g/mol,136-142,$^{\circ}$C,,,,,insoluble
Pindolol,C$_{14}$H$_{20}$N$_{2}$O$_{2}$,,,,,,,,,
Aluminium oxynitride,"(AlN)$_{x}$.(Al$_{2}$O$_{3}$)$_{1-x}$,",,,~2150,$^{\circ}$C,3.691-3.696,g/cm$^{3}$,,,insoluble
Ethylidene diacetate,C$_{6}$H$_{10}$O$_{4}$,,,68,$^{\circ}$C,1.07,g/cm$^{3}$,167-169,$^{\circ}$C,
Zoptarelin doxorubicin,,,,,,,,,,
Cefaloglycin,C$_{18}$H$_{19}$N$_{3}$O$_{6}$S,,,,,,,,,
Cinnoline,C$_{8}$H$_{6}$N$_{2}$,,,39,$^{\circ}$C,,,,,
Cethromycin,C$_{42}$H$_{59}$N$_{3}$O$_{10}$,,,211,$^{\circ}$C,,,,,
Xanomeline,C$_{14}$H$_{23}$N$_{3}$OS,,,,,,,,,
Uranium(III) chloride,UCl$_{3}$,,,837,$^{\circ}$C,,,1657,$^{\circ}$C,Soluble
Castavinol C3,C$_{26}$H$_{30}$O$_{14}$,566.50,g/mol,,,,,,,
DSP-4,C$_{11}$H$_{15}$BrClN,276.60,g/mol,,,1.339,                                 g/cm$^{3}$,,,
Silver subfluoride,Ag$_{2}$F,234.734,g/mol,90,$^{\circ}$C,,,,,reacts
Methastyridone,C$_{13}$H$_{15}$NO$_{2}$,,,,,,,,,
Terpyridine,C$_{15}$H$_{11}$N$_{3}$,,,88,$^{\circ}$C,,,370,$^{\circ}$C,
Iocetamic acid,,,,,,,,,,
BAY 57-1293,C$_{18}$H$_{18}$N$_{4}$O$_{3}$S$_{2}$,,,,,,,,,
Bis(chloromethyl) ether,C$_{2}$H$_{4}$Cl$_{2}$O,,,-41.5,$^{\circ}$C,,,106,$^{\circ}$C,reacts
Alpha N O-TMS,,,,,,,,,,
Valeric acid,C$_{5}$H$_{10}$O$_{2}$,,,-34.5,$^{\circ}$C,0.930,g/cm$^{3}$,186,$^{\circ}$C,4.97
Undecane,C$_{11}$H$_{24}$,,,,,,,,,
Copper silicide,Cu$_{5}$Si,345.8155,g/mol,825,$^{\circ}$C,,,,,
Rifampicin,C$_{43}$H$_{58}$N$_{4}$O$_{12}$,,,,,,,,,
Colitose,C$_{6}$H$_{12}$O$_{4}$,148.15,g/mol,,,,,,,
Tipiracil,chemical_formulaC$_{9}$H$_{11}$ClN$_{4}$O$_{2}$,,,,,,,,,
Pantethine,C$_{22}$H$_{42}$N$_{4}$O$_{8}$S$_{2}$,554.723,g/mol,,,,,,,
Travoprost,C$_{26}$H$_{35}$F$_{3}$O$_{6}$,,,,,,,,,
Punicafolin,C$_{41}$H$_{30}$O$_{26}$,938.63,g/mol,,,,,,,
Gallium(III) iodide,Ga$_{2}$I$_{6}$,450.436,g/mol,212,$^{\circ}$C,4.15,g/cm$^{3}$,345,$^{\circ}$C,decomposes
Molybdenum ditelluride,MoTe$_{2}$,351.14,g/mol,,,7.78,g/cm$^{3}$,,,insoluble
Ophthalmic acid,C$_{11}$N$_{3}$H$_{19}$O$_{6}$,,,,,,,,,
Sodium metabisulfite,"Na$_{2}$S$_{2}$O$_{5}$,Na-O-(SO)-O-(SO)-O-Na",190.107,g/mol,170,$^{\circ}$C,1.48,g/cm$^{3}$,,,45.1
Oxybenzone,C$_{14}$H$_{12}$O$_{3}$,,,62,$^{\circ}$C,,,224,$^{\circ}$C,
Triethylammonium acetate,(CH$_{3}$CH$_{2}$)$_{3}$NHOCOCH$_{3}$,161.24,g/mol,,,,,164.5,$^{\circ}$C,Soluble
Naranol,C$_{18}$H$_{21}$NO$_{2}$,,,,,,,,,
Otelixizumab,C$_{6448}$H$_{9954}$N$_{1718}$O$_{2016}$S$_{42}$,,,,,,,,,
Sodium percarbonate,Na$_{2}$CO$_{3}$1.5H$_{2}$O$_{2}$,156.982,g/mol,,,,,,,
Phenylacetylcarbinol,C$_{9}$H$_{10}$O$_{2}$,,,172,$^{\circ}$C,1.119,g/cm$^{3}$,253,$^{\circ}$C,
Hordenine,C$_{10}$H$_{15}$NO,,,116-117,$^{\circ}$C,,,173,$^{\circ}$C,high in: ethanol
Gadobutrol,C$_{18}$H$_{31}$GdN$_{4}$O$_{9}$,,,,,,,,,
Isopropyl nitrate,C$_{3}$H$_{7}$NO$_{3}$,105.09,g/mol,-82.5,$^{\circ}$C,,,101.5,$^{\circ}$C,
Telavancin,C$_{80}$H$_{106}$Cl$_{2}$N$_{11}$O$_{27}$P,,,,,,,,,
Cidofovir,C$_{8}$H$_{14}$N$_{3}$O$_{6}$P,,,,,,,,,
Rhc80267,C$_{20}$H$_{34}$N$_{4}$O$_{4}$,,,,,,,,,
Linezolid,C$_{16}$H$_{20}$FN$_{3}$O$_{4}$,,,,,,,,,
Nefopam,C$_{17}$H$_{19}$NO,,,,,,,,,
Cystathionine,C$_{7}$H$_{14}$N$_{2}$O$_{4}$S,222.263,g/mol,,,,,,,
Netilmicin,C$_{21}$H$_{41}$N$_{5}$O$_{7}$,,,,,,,,,
CDPPB,C$_{23}$H$_{18}$N$_{4}$O,,,,,,,,,
Dihydropyridine,C$_{5}$H$_{7}$N,,,,,,,,,
AM-2201,C$_{24}$H$_{22}$FNO,,,,,,,,,
Benzylthiouracil,C$_{11}$H$_{10}$N$_{2}$OS,,,,,,,,,
Strontium chloride,SrCl$_{2}$,158.53,g/mol,874,$^{\circ}$C,3.052,g/cm$^{3}$,1250,$^{\circ}$C,anhydrous:   53.8
Hexylcaine,C$_{16}$H$_{23}$NO$_{2}$,,,,,,,,,
Para-Iodoamphetamine,C$_{9}$H$_{12}$IN,,,,,,,,,
Dipotassium pentasulfide,K$_{2}$S$_{5}$,,,,,,,,,
Ciclonicate,C$_{15}$H$_{21}$NO$_{2}$,,,,,,,,,
Ammonium oxalate,C$_{2}$H$_{8}$N$_{2}$O$_{4}$,,,,,,,,,
Cobalt(II) chlorate,Co(ClO$_{3}$)$_{2}$,225.9,g/mol,,,,,,,
Copper monosulfide,CuS,95.611,g/mol,,,4.76,g/cm$^{3}$,,,
Umespirone,C$_{28}$H$_{40}$N$_{4}$O$_{5}$,,,,,,,,,
Lofepramine,C$_{26}$H$_{27}$ClN$_{2}$O,,,,,,,,,
Oxotrichlorobis(triphenylphosphine)rhenium(V),ReOCl$_{3}$(PPH$_{3}$)$_{2}$,833.15,g/mol,205,$^{\circ}$C,,,,,not soluble in water
Hexaethyl tetraphosphate,C$_{12}$H$_{30}$P$_{4}$O$_{13}$,506.25,g/mol,-40,$^{\circ}$C,1.331,g/cm$^{3}$,467.01,$^{\circ}$C,moderate
Razupenem,C$_{18}$H$_{21}$N$_{3}$O$_{4}$S$_{2}$,,,,,,,,,
Cadmium cyanide,Cd(CN)$_{2}$,164.45,g/mol,,,2.226,g/cm$^{3}$,,,1.71
Diethylthiambutene,C$_{16}$H$_{21}$NS$_{2}$,,,152,$^{\circ}$C,,,,,
Icilin,C$_{16}$H$_{13}$N$_{3}$O$_{4}$,311.29,g/mol,,,,,,,
Cipralisant,C$_{14}$H$_{20}$N$_{2}$,,,,,,,,,
Aceperone,C$_{24}$H$_{29}$FN$_{2}$O$_{2}$,,,97,$^{\circ}$C,,,,,
Hypoglycin A,C$_{7}$H$_{11}$NO$_{2}$,,,282,$^{\circ}$C,,,,,
Calcium erythorbate,Ca(C$_{6}$H$_{7}$O$_{6}$)$_{2}$,,,,,,,,,
Desoximetasone,C$_{22}$H$_{29}$FO$_{4}$,,,,,,,,,
Cinnarizine,C$_{26}$H$_{28}$N$_{2}$,,,,,,,,,
Para-Fluorophenylpiperazine,C$_{10}$H$_{13}$FN$_{2}$,,,,,,,,,
Dimethyl pimelimidate,C$_{9}$H$_{18}$N$_{2}$O$_{2}$,,,122,$^{\circ}$C,,,,,Slightly soluble (dihydrochloride)
Rasagiline,C$_{12}$H$_{13}$N,,,,,,,,,
Pyrene,C$_{16}$H$_{10}$,202.25,g/mol,145-148,$^{\circ}$C,,,404,$^{\circ}$C,0.135
Maneb,(C$_{4}$H$_{6}$MnN$_{2}$S$_{4}$)$_{n}$,,,192,$^{\circ}$C,1.92,g/cm$^{3}$,,,160
Ethylene glycol dimethacrylate,C$_{10}$H$_{14}$O$_{4}$,,,,,,,98-100,$^{\circ}$C,
Filgotinib,C$_{21}$H$_{23}$N$_{5}$O$_{3}$S,,,,,,,,,
Dicrotophos,C$_{8}$H$_{16}$NO$_{5}$P,237.190,g/mol,,,,,400,$^{\circ}$C,miscible
Trisodium phosphate,Na$_{3}$PO$_{4}$,,,1583,$^{\circ}$C,2.536,g/cm$^{3}$,100,$^{\circ}$C,anhydrous:
Copper(I) iodide,CuI,190.45,g/mol,606,$^{\circ}$C,5.67,g/cm$^{3}$,1290,$^{\circ}$C,0.0042
Echothiophate,C$_{9}$H$_{23}$INO$_{3}$PS,,,,,,,,,
Chlordane,C$_{10}$H$_{6}$Cl$_{8}$,,,102-106,$^{\circ}$C,1.60,g/cm$^{3}$,,,0.0001% (20$^{\circ}$C)
Lipoic acid,C$_{8}$H$_{14}$O$_{2}$S$_{2}$,,,,,,,,,Soluble as sodium salt
Disodium inosinate,C$_{10}$H$_{11}$N$_{4}$Na$_{2}$O$_{8}$P,392.17,g/mol,,,,,,,
Uranium hexoxide,UO$_{6}$,334.0288,g/mol,,,,,,,
Diphenylmethane,C$_{13}$H$_{12}$,,,22-24,$^{\circ}$C,,,264,$^{\circ}$C,nonpolar organic solvents
Guanosine diphosphate mannose,C$_{16}$H$_{25}$N$_{5}$O$_{16}$P$_{2}$,605.341,g/mol,,,,,,,
Tuftsin,C$_{21}$H$_{40}$N$_{8}$O$_{6}$,500.593,g/mol,,,,,,,
Grubbs' catalyst,C$_{31}$H$_{38}$Cl$_{2}$N$_{2}$ORu,,,216-220,$^{\circ}$C,,,,,
Mavacoxib,C$_{16}$H$_{11}$F$_{4}$N$_{3}$O$_{2}$S,,,,,,,,,
Dodecanal,C$_{12}$H$_{24}$O,,,12,$^{\circ}$C,,,257,$^{\circ}$C,
Formic acid,CH$_{2}$O$_{2}$,,,8.4,$^{\circ}$C,,,100.8,$^{\circ}$C,miscible
Forodesine,C$_{11}$H$_{14}$N$_{4}$O$_{4}$,266.25,g/mol,,,,,,,
Toceranib,C$_{22}$H$_{25}$FN$_{4}$O$_{2}$,,,,,,,,,
Ristocetin,C$_{94}$H$_{108}$N$_{8}$O$_{44}$,,,,,,,,,
Bis(dicyclohexylphosphino)ethane,C$_{26}$H$_{48}$P$_{2}$,,,96-97,$^{\circ}$C,,,,,
BOB (psychedelic),C$_{11}$H$_{16}$BrNO$_{3}$,290.1548,g/mol,,,,,,,
Pinacolone,C$_{6}$H$_{12}$O,,,10,$^{\circ}$C,,,103,$^{\circ}$C,
Taliglucerase alfa,,,,,,,,,,
Ammonium perrhenate,NH$_{4}$ReO$_{4}$,268.2359,g/mol,,,,,,,2.8
Picenadol,C$_{16}$H$_{25}$NO,,,,,,,,,
Benzobarbital,C$_{19}$H$_{16}$N$_{2}$O$_{4}$,,,,,,,,,
Ketipramine,C$_{19}$H$_{22}$N$_{2}$O,,,,,,,,,
Safrole,C$_{10}$H$_{10}$O$_{2}$,162.19,g/mol,11,$^{\circ}$C,1.096,g/cm$^{3}$,232-234,$^{\circ}$C,
Silver trifluoromethanesulfonate,CF$_{3}$SO$_{3}$Ag,256.937,g/mol,286,$^{\circ}$C,,,,,soluble
Bopindolol,C$_{23}$H$_{28}$N$_{2}$O$_{3}$,,,,,,,,,
Phenylglyoxylic acid,C$_{8}$H$_{6}$O$_{3}$,150.13,g/mol,64-66,$^{\circ}$C,,,,,
Sazetidine A,,,,,,,,,,
Uranium boride,UB$_{2}$,259.651,g/mol,2430,$^{\circ}$C,12.7,g/cm$^{3}$,,,
Rhodamine 6G,C$_{28}$H$_{31}$N$_{2}$O$_{3}$Cl,479.02,g/mol,,,1.26,g/cm$^{3}$,,,
Aleph (psychedelic),C$_{12}$H$_{19}$NO$_{2}$S,240.35,g/mol,,,,,,,
Sulfapyridine,C$_{11}$H$_{11}$N$_{3}$O$_{2}$S,,,,,,,,,
Bivalirudin,C$_{98}$H$_{138}$N$_{24}$O$_{33}$,,,,,,,,,
Phenindione,C$_{15}$H$_{10}$O$_{2}$,,,,,,,,,
Dipivefrine,C$_{19}$H$_{29}$NO$_{5}$,,,,,,,,,
Taurolithocholic acid,C$_{26}$H$_{45}$NO$_{5}$S,483.70,g/mol,,,,,,,
Acetonitrile,C$_{2}$H$_{3}$N,,,,,,,,,Miscible
Tetrahydrocortisol,C$_{21}$H$_{34}$O$_{5}$,366.49,g/mol,,,,,,,
Olodaterol,C$_{21}$H$_{26}$N$_{2}$O$_{5}$,,,,,,,,,
Dioxolane,C$_{3}$H$_{6}$O$_{2}$,74.08,g/mol,-95,$^{\circ}$C,1.06,g/cm$^{3}$,75,$^{\circ}$C,
Kaempferol 7-O-glucoside,C$_{21}$H$_{20}$O,,,,,,,,,
Carbamazepine,C$_{15}$H$_{12}$N$_{2}$O,,,,,,,,,
Fondaparinux,C$_{31}$H$_{43}$N$_{3}$Na$_{10}$O$_{49}$S$_{8}$,,,,,,,,,
Guanidine,CH$_{5}$N$_{3}$,,,50,$^{\circ}$C,,,,,
Rosmarinic acid,C$_{18}$H$_{16}$O$_{8}$,360.31,g/mol,171-175,$^{\circ}$C,,,,,"slightly soluble in water, but well soluble in most organic solvents."
NMP-7,C$_{23}$H$_{28}$N$_{2}$O,,,,,,,,,