Property Melting Point,Property Density,Property Boiling Point,Property Solubility,Property Molar Mass,Name,formula
,,,Soluble: 0.23,,Tryptophan,C$_{11}$H$_{12}$N$_{2}$O$_{2}$
,,,,,Cefpirome,C$_{22}$H$_{22}$N$_{6}$O$_{5}$S$_{2}$
,,,,314.46,Cannabichromene,C$_{21}$H$_{30}$O$_{2}$
,,,,,Nitazoxanide,C$_{12}$H$_{9}$N$_{3}$O$_{5}$S
,,,,,Phosphatrioxa-adamantane,C$_{10}$H$_{17}$O$_{3}$P
,,,,522.93,Ceroplastic acid,C$_{35}$H$_{70}$O$_{2}$
,,,,,N-Acetylglucosamine,C$_{8}$H$_{15}$NO$_{6}$
64.5,,,600,,Rongalite,CH$_{3}$NaO$_{3}$S
-259.14,,-252.87,,,Liquid hydrogen,H$_{2}$
,,,,,Vindesine,C$_{43}$H$_{55}$N$_{5}$O$_{7}$
,,,56.8,,Ethane,C$_{2}$H$_{6}$
,,,,,Heroin,C$_{21}$H$_{23}$NO$_{5}$
-33,,47,0.05% (20$^{\circ}$C),171.98,Cobalt tetracarbonyl hydride,C$_{4}$HCoO$_{4}$
,,,,,Hyoscyamine,C$_{17}$H$_{23}$NO$_{3}$
184,,,,,Pyroglutamic acid,C$_{5}$H$_{7}$NO$_{3}$
149,,274,,,Glucic acid,C$_{3}$H$_{4}$O$_{3}$
-144,,-15.2,,,Disiloxane,H$_{6}$OSi$_{2}$
17-19,1.48,167,,,Methanesulfonic acid,CH$_{4}$O$_{3}$S
52.8,1.48,202,Reacts,,Maleic anhydride,C$_{4}$H$_{2}$O$_{3}$
,,,,,Pirolazamide,C$_{23}$H$_{29}$N$_{3}$O
2507,,3900,0.00002,,Beryllium oxide,BeO
,,,,,Pralatrexate,C$_{23}$H$_{23}$N$_{7}$O$_{5}$
,,,Miscible,,Propylamine,C$_{3}$H$_{9}$N
,,,,,Magnesium trisilicate,Mg$_{2}$O$_{8}$Si$_{3}$
,,,,,Laminarin,(C$_{6}$H$_{10}$O$_{5}$)$_{x}$
,,,,,Pipotiazine,C$_{24}$H$_{33}$N$_{3}$O$_{3}$S$_{2}$
,,,,,Isobutane,C$_{4}$H$_{10}$
,,,,,Cimoxatone,C$_{19}$H$_{18}$N$_{2}$O$_{4}$
,,,,,Devapamil,C$_{26}$H$_{36}$N$_{2}$O$_{3}$
,,,,,Cycloprop-2-ene carboxylic acid,C$_{4}$H$_{4}$O$_{2}$
,,,,,Troxacitabine,C$_{8}$H$_{11}$N$_{3}$O$_{4}$
238-240,,,Insoluble,,Naphtholphthalein,C$_{28}$H$_{18}$O$_{4}$
-15,,-6,,86.4502,Chloryl fluoride,ClO$_{2}$F
,,,,,Nateglinide,C$_{19}$H$_{27}$NO$_{3}$
,,,,578.52,Procyanidin B4,C$_{30}$H$_{26}$O$_{12}$
1052,8.2,2380,insoluble,230.04,Ytterbium(III) fluoride,YbF$_{3}$
-72.6,,-27.1,,,Thiazyl trifluoride,NSF$_{3}$
,,,,,Acetic formic anhydride,C$_{3}$H$_{4}$O$_{3}$
,,,,284.27,Genkwanin,C$_{16}$H$_{12}$O$_{5}$
,,,,,Acaprazine,C$_{15}$H$_{21}$Cl$_{2}$N$_{3}$O
117-119,,240,13.7,,Fenarimol,C$_{17}$H$_{12}$Cl$_{2}$N$_{2}$O
,,,,,Gadoteric acid,
-1,,90,insoluble,,Carbon subsulfide,C$_{3}$S$_{2}$
,,,,287.78,SCH 23390,C$_{17}$H$_{18}$ClNO
-91.5,,165,insoluble,,Butyl butyrate,C$_{8}$H$_{16}$O$_{2}$
,,,,,EXP-561,C$_{14}$H$_{19}$N
,,,,,Meprobamate,C$_{9}$H$_{18}$N$_{2}$O$_{4}$
,,,,359.258,PA 824,C$_{14}$H$_{12}$F$_{3}$N$_{3}$O$_{5}$
,,,,,Methaphenilene,C$_{15}$H$_{20}$N$_{2}$S
,,,,,Sibrafiban,C$_{16}$H$_{21}$NO$_{2}$
,,,,314.24,Wedelolactone,C$_{16}$H$_{10}$O$_{7}$
223,3,350,insoluble,56.3038,Magnesium peroxide,MgO$_{2}$
,,,,,Benfotiamine,C$_{19}$H$_{23}$N$_{4}$O$_{6}$PS
-12,0.811,118.4,,,Cycloheptane,C$_{7}$H$_{14}$
,,,,412.45,Triphenylsulfonium triflate,C$_{19}$H$_{15}$F$_{3}$O$_{3}$S$_{2}$
-122,,6,,,Methyl vinyl ether,H$_{2}$S$_{2}$O$_{5}$
,,,,,Brallobarbital,C$_{10}$H$_{11}$BrN$_{2}$O$_{3}$
,,,,,Disuccinimidyl suberate,C$_{16}$H$_{20}$N$_{2}$O$_{8}$
,,,,,Cyclofenil,C$_{23}$H$_{24}$O$_{4}$
,,,,,Yangonin,C$_{15}$H$_{14}$O$_{4}$
,,,,,Risedronic acid,
-71,,99.4,1.5,,Ethyl acrylate,C$_{5}$H$_{8}$O$_{2}$
,,,,,Methohexital,C$_{14}$H$_{18}$N$_{2}$O$_{3}$
289,,,1,96.06,Sodium propionate,C$_{3}$H$_{5}$NaO$_{2}$
,,,,,Palovarotene,C$_{27}$H$_{30}$N$_{2}$O$_{2}$
,,,,,SB-399885,C$_{18}$H$_{21}$Cl$_{2}$N$_{3}$O$_{4}$S
,,,,,Atorvastatin,C$_{33}$H$_{35}$FN$_{2}$O$_{5}$
,,,,342.3,Turanose,C$_{12}$H$_{22}$O$_{11}$
94-96,,,,,Cholesteryl chloride,C$_{27}$H$_{45}$Cl
,,,0.02% (20$^{\circ}$C),,Strychnine,C$_{21}$H$_{22}$N$_{2}$O$_{2}$
292-301,,,,,Potassium tris(3 5-dimethyl-1-pyrazolyl)borate,C$_{15}$H$_{22}$BKN$_{6}$
$\in$ 70,,,,216.91,Rhodium hexafluoride,RhF$_{6}$
,,,,,Triprolidine,C$_{19}$H$_{22}$N$_{2}$
117,,,Reacts,,Xenon tetrafluoride,XeF$_{4}$
,,,,,AM-905,C$_{23}$H$_{34}$O$_{3}$
,,,,,Anhalinine,C$_{12}$H$_{17}$NO$_{3}$
,,,,468.4,Gyrophoric acid,C$_{24}$H$_{20}$O$_{10}$
,,,,,Chromium(III) nicotinate,
,,,,239.311,Metaproscaline,C$_{13}$H$_{21}$NO$_{3}$
,,,,,Alizapride,C$_{16}$H$_{21}$N$_{5}$O$_{2}$
,,,,,Diacerein,C$_{19}$H$_{12}$O$_{8}$
-90,,56,,,Perfluorohexane,C$_{6}$F$_{14}$
168-170,,,16,198.11,Sodium erythorbate,C$_{6}$H$_{7}$NaO$_{6}$
,,,,,Pentaethylene glycol monododecyl ether,C$_{22}$H$_{46}$O$_{6}$
,,,,402.65,Delta-Tocopherol,C$_{27}$H$_{46}$O$_{2}$
58,,,,,Psicose,C$_{6}$H$_{12}$O$_{6}$
-43.3,,152.8,Slightly soluble,,Heptanal,C$_{7}$H$_{14}$O
,,,,,Semaxanib,C$_{15}$H$_{14}$N$_{2}$O
,,,,,Trimethylene carbonate,C$_{4}$H$_{6}$O$_{3}$
,,,,,Necopidem,C$_{23}$H$_{29}$N$_{3}$O
163-165,,,Soluble,177.22,Alliin,C$_{6}$H$_{11}$NO$_{3}$S
,,,,,DiFMDA,C$_{10}$H$_{11}$F$_{2}$NO$_{2}$
53,,,,2878.2,Silicotungstic acid,H$_{4}$(W$_{12}$SiO$_{40}$)
,,,,,Vinblastine,C$_{46}$H$_{58}$N$_{4}$O$_{9}$
-47,0.938,166,moderate,,Diacetone alcohol,C$_{6}$H$_{12}$O$_{2}$
,,,,,Rotigotine,C$_{19}$H$_{25}$NOS
,,,,,Wine lactone,C$_{10}$H$_{14}$O$_{2}$
,,,,,Xibornol,C$_{18}$H$_{26}$O
,,,,498.47,Phylloflavan,C$_{26}$H$_{26}$O$_{10}$
,,,,,Flucloxacillin,C$_{19}$H$_{17}$ClFN$_{3}$O$_{5}$S
,,,,,Bupropion,C$_{13}$H$_{18}$ClNO
,,,,,GS-39783,C$_{15}$H$_{23}$N$_{5}$O$_{2}$S
,,,,,UH-232,C$_{18}$H$_{29}$NO
137,,226,,,Isovaleramide,C$_{5}$H$_{11}$NO
,,,,454.47,Quadrangularin A,C$_{28}$H$_{22}$O$_{6}$
,,,,,Alimemazine,C$_{18}$H$_{22}$N$_{2}$S
,,,,,Trestolone,C$_{19}$H$_{28}$O$_{2}$
,,,,,Sulbactam,C$_{8}$H$_{11}$NO$_{5}$S
,1.273,,,311.3303,Domoic acid,C$_{15}$H$_{21}$NO$_{6}$
207,1.437,,54.5,89.093,Beta-Alanine,C$_{3}$H$_{7}$NO$_{2}$
,,,0.4,250.4,Chloropentamminecobalt chloride,(Co(NH$_{3}$)$_{5}$Cl)Cl$_{2}$
126.1,,239.5,,195.09,Ammonium hexafluoroaluminate,(NH$_{4}$)$_{3}$AlF$_{6}$
,,,,,Meglumine antimoniate,
,,,,,Meprodine,C$_{17}$H$_{25}$NO$_{2}$
654,2.977,1225,63.4,125.844,Manganese(II) chloride,MnCl$_{2}$
,,,,334.32,Plicadin,C$_{20}$H$_{14}$O$_{5}$
,,,,,Pingbeinine,C$_{28}$H$_{47}$NO$_{3}$
,,,,286.27,Phyllodulcin,C$_{16}$H$_{14}$O$_{5}$
,,,,,AL-1095,C$_{20}$H$_{22}$ClNO
,,,,,Herkinorin,C$_{28}$H$_{30}$O$_{8}$
135,,,soluble (hydroscopic),,Nitronium perchlorate,NO$_{6}$Cl
,,,,,Isonicotinamide,C$_{6}$H$_{6}$N$_{2}$O
1967,4.571,,,82.94,Vanadium(IV) oxide,VO$_{2}$
,,,,,Desonide,C$_{24}$H$_{32}$O$_{6}$
129.5,,334,,,Nicotinamide,C$_{6}$H$_{6}$N$_{2}$O
,,,,,DPA-714,C$_{22}$H$_{27}$N$_{4}$O$_{2}$F
,,,,,Retigabine,C$_{16}$H$_{18}$FN$_{3}$O$_{2}$
,,,,622.57,Pectolinarin,C$_{29}$H$_{34}$O$_{15}$
,,,,,Dosulepin,C$_{19}$H$_{21}$NS
~90,2.498,,43,1163.9,Ammonium heptamolybdate,(NH$_{4}$)$_{6}$Mo$_{7}$O$_{24}$
,,,,287.579,Titanium(III) bromide,TiBr$_{3}$
225,,,,,Bromocresol green,C$_{21}$H$_{14}$O$_{5}$SBr$_{4}$
711,3.72,1250,102,184.113,Magnesium bromide,MgBr$_{2}$(anhydrous)
,,,,,Piperic acid,C$_{12}$H$_{10}$O$_{4}$
,,,,,Dimenoxadol,C$_{20}$H$_{25}$NO$_{3}$
,,,,,Lithium tetramethylpiperidide,C$_{9}$H$_{18}$LiN
75,,,,,Hydrogen peroxide-urea,CH$_{6}$N$_{2}$O$_{3}$
,,,,398.45,Ovalene,C$_{32}$H$_{14}$
273,,,,,Decynium-22,C$_{23}$H$_{23}$N$_{2}$I
,,,1.02,254.33,Djenkolic acid,C$_{7}$H$_{14}$N$_{2}$O$_{4}$S$_{2}$
,0.95,,,885.432,Triolein,C$_{57}$H$_{104}$O$_{6}$
,,,,,Cortisol,C$_{21}$H$_{30}$O$_{5}$
,,,,,Olaratumab,C$_{6554}$H$_{10076}$N$_{1736}$O$_{2048}$S$_{40}$
,,,,,Losmapimod,C$_{22}$H$_{26}$FN$_{3}$O$_{2}$
,,,,428.6,Triheptanoin,C$_{24}$H$_{44}$O$_{6}$
,,,,,Balsalazide,C$_{17}$H$_{15}$N$_{3}$O$_{6}$
49,1.063,,dispersible in warm water,,Sodium stearoyl lactylate,C$_{24}$H$_{43}$NaO$_{6}$
166,,,,,Benz(e)acephenanthrylene,C$_{20}$H$_{12}$
-74,0.95,80,5,,Methyl acrylate,C$_{4}$H$_{6}$O$_{2}$
21,1.566,145,miscible,,Tantalum(V) ethoxide,C$_{10}$H$_{25}$O$_{5}$Ta
,,,,,Stanozolol,C$_{21}$H$_{32}$N$_{2}$O
,,,,,Miroestrol,C$_{20}$H$_{22}$O$_{6}$
,,,,,Nitroacetic acid,C$_{2}$H$_{3}$NO$_{4}$
122-125,1.25,400,0.94,184.24,Benzidine,C$_{12}$H$_{12}$N$_{2}$
,,,,197.13,Creatinolfosfate,C$_{4}$H$_{12}$N$_{3}$O$_{4}$P
200,2.326,,,116.98,Ammonium metavanadate,NH$_{4}$VO$_{3}$
,,,,92.05,Pentacarbon dioxide,C$_{5}$O$_{2}$
,,,,,Timepidium bromide,
350,,,41.4,81.1184,Potassium azide,KN$_{3}$
,,,,,Benfluorex,C$_{19}$H$_{20}$F$_{3}$NO$_{2}$
,,93,,114.09,Methyl fluorosulfonate,CH$_{3}$O$_{3}$FS
,,,Reacts,,Uranium hydride,UH$_{3}$
,,,,,Abafungin,C$_{21}$H$_{22}$N$_{4}$OS
,,,,,Trimetaphan camsilate,
212,1.41,,,196.2,Cantharidin,C$_{10}$H$_{12}$O$_{4}$
,,,,,TM-38837,C$_{30}$H$_{25}$Cl$_{2}$F$_{3}$N$_{4}$OS
,,,,,Cefotetan,C$_{17}$H$_{17}$N$_{7}$O$_{8}$S$_{4}$
,,,,463.41,Peonidin-3-O-glucoside,C$_{22}$H$_{23}$O$^{+}_{11}$
139-143,,,,265.31,Anisomycin,C$_{14}$H$_{19}$NO$_{4}$
260,,,,344.38,Metol,(C$_{7}$H$_{10}$NO)$_{2}$SO$_{4}$
,,,,,Stibophen,C$_{12}$H$_{4}$Na$_{5}$O$_{16}$S$_{4}$Sb
,,,,,DHA-clozapine,C$_{40}$H$_{49}$ClN$_{4}$O
-73,1.765,210,,248.75,Hexachloropropene,C$_{3}$Cl$_{6}$
158.6,1.443,200,1.24,,Salicylic acid,C$_{7}$H$_{6}$O$_{3}$
,,,,432.37,Tetuin,C$_{21}$H$_{20}$O$_{10}$
,,,,,Tirilazad,C$_{38}$H$_{52}$N$_{6}$O$_{2}$
,,,,,Simvastatin,C$_{25}$H$_{38}$O$_{5}$
,,,,,GSK2606414,C$_{24}$H$_{20}$F$_{3}$N$_{5}$O
85,1.077,318,,,Mexacarbate,C$_{12}$H$_{18}$N$_{2}$O$_{2}$
,,,,342.4718,Anacardic acids,C$_{22}$H$_{30}$O$_{3}$
203-204,,,,432.38,Vitexin,C$_{21}$H$_{20}$O$_{10}$
,,,,,Cariporide,C$_{12}$H$_{17}$N$_{3}$O$_{3}$S
,,,,,Proxymetacaine,C$_{16}$H$_{26}$N$_{2}$O$_{3}$
,,,,,Ethylmethylthiambutene,C$_{15}$H$_{19}$NS$_{2}$
609,4.52,1580,soluble,263.61,Gadolinium(III) chloride,GdCl$_{3}$
,,,,219.33,Quinpirole,C$_{30}$H$_{52}$O
,,106,,,Trimethylsilyl iodide,C$_{3}$H$_{9}$ISi
,,,,141.02,Carbamoyl phosphate,CH$_{2}$NO$_{5}$P$^{2-}$
,,,,,Ruxolitinib,C$_{17}$H$_{18}$N$_{6}$
,,,,,Xorphanol,C$_{23}$H$_{31}$NO
,,,,,Enalaprilat,C$_{18}$H$_{24}$N$_{2}$O$_{5}$
,,,,,Boron monofluoride,BF
,,,Reacts,,Methylidyne radical,CH$^{3.}$
,,,,,LR132,C$_{18}$H$_{26}$N$_{2}$Cl$_{2}$
,,,,,Phosphoribosylaminoimidazolesuccinocarboxamide,C$_{13}$H$_{19}$N$_{4}$O$_{12}$P
,,,,,Gabaculine,C$_{7}$H$_{9}$NO$_{2}$
,,,,,JWH-133,C$_{22}$H$_{32}$O
68.75,,,,,Dizocilpine,C$_{16}$H$_{15}$N
705,,,very soluble,173.82,Lithium molybdate,Li$_{2}$MoO$_{4}$
,,,,,Gefitinib,C$_{22}$H$_{24}$ClFN$_{4}$O$_{3}$
,,,,,Acediasulfone,C$_{14}$H$_{14}$N$_{2}$O$_{4}$S
,,,,,JWH-073,C$_{23}$H$_{21}$NO
158,,,1,,Benzisothiazolinone,C$_{7}$H$_{5}$NOS
,,,,,Fosphenytoin,C$_{16}$H$_{15}$N$_{2}$O$_{6}$P
-145,,-14.6,Insoluble,130.92,Bromodifluoromethane,CHBrF$_{2}$
-24.1,1.726,136.4,Reacts,189.679,Titanium tetrachloride,TiCl$_{4}$
,,,,,DMBMPP,C$_{21}$H$_{26}$NO$_{3}$Br
158-161,,,,186.16,Psoralen,C$_{11}$H$_{6}$O$_{3}$
,,480.1,,225.179,AP-7 (drug),C$_{7}$H$_{16}$NO$_{5}$P
,,,,,Tetraaminoethylene,C$_{2}$H$_{8}$N$_{4}$
185,,,,,Aceglatone,C$_{10}$H$_{10}$O$_{8}$
-157,,-57,Hydrolyzes,46.14,Methylsilane,CH$_{6}$Si
37.4,,55.3,,212,Technetium hexafluoride,TcF$_{6}$
,,,,,Panobinostat,C$_{21}$H$_{23}$N$_{3}$O$_{2}$
,,,,,BD1031,C$_{15}$H$_{20}$N$_{2}$Cl$_{2}$
,,,,,Protactinium(V) oxide,Pa$_{2}$O$_{5}$
,,,,,Hymecromone,C$_{10}$H$_{8}$O$_{3}$
,,,,,TC OT 39,
,,,,326.29,Neohesperidose,C$_{12}$H$_{22}$O$_{10}$
,,,,,Alglucerase,C$_{2532}$H$_{3854}$N$_{672}$O$_{711}$S$_{16}$
-102,,87.5,Decomposes,91.07,Ethyl nitrate,C$_{2}$H$_{5}$NO$_{3}$
285,,330,,406.3122,Basic beryllium acetate,C$_{12}$H$_{18}$Be$_{4}$O$_{13}$
83.5,,209.5,"Easily soluble in cold water, hot water",,Histamine,C$_{5}$H$_{9}$N$_{3}$
,,,,,Chlortalidone,C$_{14}$H$_{11}$ClN$_{2}$O$_{4}$S
,,,,,Magnesium aspartate,
153-155,,,,212.244,Pinosylvin,C$_{14}$H$_{12}$O$_{2}$
-42,,167-170,Reacts to give propanoic acid,130.14,Propionic anhydride,C$_{6}$H$_{10}$O$_{3}$
,,,,,Lobenzarit,C$_{14}$H$_{10}$ClNO$_{4}$
,,,,,ROD-188,C$_{20}$H$_{21}$NO$_{4}$S
,,,,237.29,Allylescaline,C$_{13}$H$_{19}$NO$_{3}$
102.4,,,0.032,,Tebuconazole,C$_{16}$H$_{22}$ClN$_{3}$O
110.8,,375,265,202.26,Fluoranthene,C$_{16}$H$_{10}$
,,,,,Syringomycin E,C$_{53}$H$_{85}$ClN$_{14}$O$_{17}$
,,,,,Acetyldihydrocodeine,C$_{20}$H$_{25}$NO$_{4}$
,,143,,100.12,Gyromitrin,C$_{4}$H$_{8}$N$_{2}$O
150,,,4,477.38,Quinoline Yellow WS,C$_{18}$H$_{13}$NO$_{5/8/11}$S$_{1/2/3}$Na$_{1/2/3}$
120-124,,,,456.54,Sudan Black B,C$_{29}$H$_{24}$N$_{6}$
214-215,,,,270.24,Galangin,C$_{15}$H$_{10}$O$_{5}$
131-134.5,1.209,294.4,0.25,,Sebacic acid,C$_{10}$H$_{18}$O$_{4}$
,,,,,Muzolimine,C$_{11}$H$_{11}$Cl$_{2}$N$_{3}$O
194,2.928,268,hydrolyzes,273.21,Molybdenum(V) chloride,Cl$_{10}$Mo$_{2}$
135-137,1.619,,Miscible,,Malonic acid,C$_{3}$H$_{4}$O$_{4}$
,,,,1202.61,NIM811,C$_{62}$H$_{111}$N$_{11}$O$_{12}$
,,,,,Trepipam,C$_{19}$H$_{23}$NO$_{2}$
,,173-174,,,N-Methylconiine,C$_{9}$H$_{19}$N
450,,,insoluble,209.26,Rhodium(III) chloride,RhCl$_{3}$
-45,,131,,112.56,Chlorobenzene,C$_{6}$H$_{5}$Cl
,,,,,Methylenedioxyphentermine,C$_{11}$H$_{15}$NO$_{2}$
-147.8,1.434,-46.7,0.06,102.4496,Perchloryl fluoride,ClO$_{3}$F
,,,,,Fadrozole,C$_{14}$H$_{13}$N$_{3}$
,,,,,ELB-139,C$_{14}$H$_{16}$ClN$_{3}$O
,,,,,Myricetin,C$_{15}$H$_{10}$O$_{8}$
,,,,,Decamethonium,C16H38N2+
,,,,,Ammonium nonanoate,C$_{9}$H$_{21}$NO$_{2}$
,,,,626.51,Myricetin 3-O-rutinoside,C$_{27}$H$_{30}$O$_{17}$
,,,,,Ethyl dirazepate,
,,,,567.461,Manganese(II) phthalocyanine,C$_{32}$H$_{16}$MnN$_{8}$
,,,,,Tranylcypromine,C$_{9}$H$_{11}$N
,,,,225.29,Prometon,C$_{10}$H$_{19}$N$_{5}$O
,,158,,1825.25,Phosphomolybdic acid,H$_{3}$PMo$_{12}$O$_{40}$
106,,,17.61,,Bis(2-Hydroxyethyl) terephthalate,C$_{12}$H$_{14}$O$_{6}$
,,,,,Ethacridine lactate,
> 1200,9.32,,insoluble,341.76,Tungsten diselenide,Se$_{2}$W
239,,,,484.22,New methylene blue,C$_{18}$H$_{22}$N$_{3}$S:SClZnCl$_{2}$
~1500,6.74,,insoluble,130.96,Chromium(II) selenide,CrSe
,,,,,Iohexol,C$_{19}$H$_{26}$I$_{3}$N$_{3}$O$_{9}$
,,,,207.29,Felinine,C$_{8}$H$_{17}$NO$_{3}$S
155-158,,721,Insoluble,,Anthrone,C$_{14}$H$_{10}$O
,,,,,Ecallantide,C$_{305}$H$_{442}$N$_{88}$O$_{91}$S$_{8}$
,,,,,JWH-007,C$_{25}$H$_{25}$NO
,,,,611.52,Delphinidin-3-O-(6-p-coumaroyl)glucoside,C$_{30}$H$_{27}$O$^{+}_{14}$
,,,,,BML-190,C$_{23}$H$_{23}$ClN$_{2}$O$_{4}$
,2.52,,,105.782,Boron phosphate,BPO$_{4}$
,,,,306.26,Leucocyanidin,C$_{15}$H$_{14}$O$_{7}$
293.5,,,,204.19,Tetracyanoquinodimethane,C$_{12}$H$_{4}$N$_{4}$
-31,,-20,soluble in water,,Sulfur tetrachloride,SCl$_{4}$
,,,,68.46,Chlorous acid,HClO$_{2}$
,,482.1,"Ammonium hydroxide, 50",197.13,AP5,C$_{5}$H$_{12}$NO$_{5}$P
732,,1245,negligible,159.6,Tellurium dioxide,TeO$_{2}$
,,,,,Atropine,C$_{17}$H$_{23}$NO$_{3}$
,,,,,Hexamethyltungsten,C$_{6}$H$_{18}$W
,,,,,Pigment Yellow 10,C$_{16}$H$_{12}$Cl$_{2}$N$_{4}$O
,,,,,THIQ,C$_{33}$H$_{41}$ClN$_{6}$O$_{2}$
,,,,125.94,Arsenous acid,H$_{3}$AsO$_{3}$
,,,,,Exemestane,C$_{20}$H$_{24}$O$_{2}$
,,296-297,,,Veratrole alcohol,C$_{9}$H$_{12}$O$_{3}$
,,,,,Micronomicin,C$_{20}$H$_{41}$N$_{5}$O$_{7}$
-161.5,,-20.2,"slight, Highly reactive",55.92,Trimethylborane,C$_{3}$H$_{9}$B
8.2,,253,,,Isosafrole,C$_{10}$H$_{10}$O$_{2}$
,,,,,Dihydromorphine,C$_{17}$H$_{21}$NO$_{3}$
,,,,,Cefsulodin,C22H21N4O8S2charge+
50-52,,140,,,Hinokitiol,C$_{10}$H$_{12}$O$_{2}$
180,,,,120.15,Trimethylolethane,C$_{5}$H$_{12}$O$_{3}$
,,,,,Methotrexate,C$_{20}$H$_{22}$N$_{8}$O$_{5}$
,,,,,Dilithium,Li$_{2}$
,,,,,Pterulone,C$_{13}$H$_{11}$ClO$_{2}$
,,,,,Cocamide DEA,"CH$_{3}$(CH$_{2}$)$_{n}$C(O)N(CH$_{2}$CH$_{2}$OH)$_{2}$,n~8-18"
,,,,,Clocental,C$_{10}$H$_{14}$N$_{2}$O$_{3}$
,,,,,Acarviosin,C$_{14}$H$_{25}$NO$_{8}$
,,,,,Hydrogen astatide,HAt
,,,,,Indacrinone,C$_{18}$H$_{14}$Cl$_{2}$O$_{4}$
837,,900,Very soluble,230.945,Rubidium carbonate,Rb$_{2}$CO$_{3}$
-124.7,,7.1,,118.52,Sulfuryl chloride fluoride,ClFO$_{2}$S
47.2,1.68,125,150,241.86,Iron(III) nitrate,Fe(NO$_{3}$)$_{3}$
,,,,,Carbenicillin,C$_{17}$H$_{18}$N$_{2}$O$_{6}$S
,,,,,HBT (explosive),C$_{2}$H$_{4}$N$_{10}$
,,,,,Panobacumab,C$_{38714}$H$_{60189}$N$_{10637}$O$_{12187}$S$_{322}$
,,,,395.4,Diacetylnalorphine,C$_{23}$H$_{25}$NO$_{5}$
,,,,442.45,Mallotochromene,C$_{24}$H$_{26}$O$_{8}$
,,,,304.43,Aleuritic acid,C$_{16}$H$_{32}$O$_{5}$
,,,,,Gamma-Endorphin,C$_{83}$H$_{131}$N$_{19}$O$_{27}$S
,,,low,,Germane,GeH$_{4}$
,,,,366,Tribromoisocyanuric acid,C$_{3}$Br$_{3}$N$_{3}$O$_{3}$
,,,,220.17,Purpurogallin,C$_{11}$H$_{8}$O$_{5}$
,,,,,Barium acetylacetonate,BaC$_{10}$H$_{14}$O$_{4}$
150,4.38,,insoluble,165.8404,Indium(III) hydroxide,In(OH)$_{3}$
-73.2,0.86,186,,158.24,Pentyl butyrate,C$_{9}$H$_{18}$O$_{2}$
,,,,,THJ-2201,C$_{23}$H$_{21}$FN$_{2}$O
,,,,,Iodocyanopindolol,C$_{16}$H$_{20}$IN$_{3}$O$_{2}$
,,,,,TCS-OX2-29,C$_{23}$H$_{31}$N$_{3}$O$_{3}$
1033,2.5,,insoluble,96.251,Calcium silicide,CaSi$_{2}$
,,,,,Oxymorphol,C$_{17}$H$_{21}$NO$_{4}$
,,,,,SR-57227,C$_{10}$H$_{14}$ClN$_{3}$
,,,,182.173,Meta-Hydroxyphenylhydracrylic acid,C$_{9}$H$_{10}$O$_{4}$
,,,,,Fontolizumab,C$_{6500}$H$_{9974}$N$_{1726}$O$_{2026}$S$_{52}$
,,,,,Erdosteine,C$_{8}$H$_{11}$NO$_{4}$S$_{2}$
,,,,,Mebeverine,C$_{25}$H$_{35}$NO$_{5}$
,,,,602.45,Phlorofucofuroeckol A,C$_{30}$H$_{18}$O$_{14}$
,,,18,,Niacin,C$_{6}$NH$_{5}$O$_{2}$
,,,,1062.05,Phytanoyl-CoA,C$_{41}$H$_{74}$N$_{7}$O$_{17}$P$_{3}$S
23,,,,,Gadoleic acid,C$_{20}$H$_{38}$O$_{2}$
160,,,,552.85,Rubixanthin,C$_{40}$H$_{56}$O
210-213,,,,168.14,Vanillic acid,C$_{8}$H$_{8}$O$_{4}$
,,,,,Akuammine,C$_{22}$H$_{26}$N$_{2}$O$_{4}$
,,95-96,Reacts,,Methacryloyl chloride,C$_{4}$H$_{5}$ClO
,,,,303.065-346.4222,Lead zirconate titanate,PbZrxTi1-xO3(0$\leq$x$\leq$1)
,,,,,Benzquinamide,C$_{22}$H$_{32}$N$_{2}$O$_{5}$
,,,,412.527,Disodium octaborate tetrahydrate,Na$_{2}$B$_{8}$O$_{13}$.4H$_{2}$O
,,,,,Epiandrosterone,C$_{19}$H$_{30}$O$_{2}$
,,,,,SIB-1893,C$_{14}$H$_{13}$N
,,,,,Iodophenpropit,C$_{15}$H$_{19}$IN$_{4}$S
,,,,,Perzinfotel,C$_{9}$H$_{13}$N$_{2}$O$_{5}$P
,,,organic solvents,610.57,SEGPHOS,C$_{38}$H$_{28}$O$_{4}$P$_{2}$
,,,,,Luteone (isoflavone),C$_{20}$H$_{18}$O$_{6}$
,,,,,Hydrastine,C$_{21}$H$_{21}$NO$_{6}$
228,,,,185.073,Phosphoserine,C$_{3}$H$_{8}$NO$_{6}$P
,,,,,Heparin,C$_{12}$H$_{19}$NO$_{20}$S$_{3}$
,,,,219.283,Methylenedioxyallylamphetamine,C$_{13}$H$_{17}$NO$_{2}$
,,,,200.28,Tetrahydrozoline,C$_{13}$H$_{16}$N$_{2}$
-110,,-22.5,Slightly,195.91,Trifluoroiodomethane,CF$_{3}$I
,,,,,Acetylcarnitine,C$_{9}$H$_{17}$NO$_{4}$
31.1,3.54,221,decomposes,314.634,Arsenic tribromide,AsBr$_{3}$
,,,0.41,514.694,Platinum(IV) bromide,PtBr$_{4}$
-50,,125,,,Diethylaluminium chloride,C$_{4}$H$_{10}$AlCl
,,,,,Pipemidic acid,
46-47,,139-140,0.0024,335.28,Trifluralin,C$_{13}$H$_{16}$F$_{3}$N$_{3}$O$_{4}$
,,,,,Drometrizole trisiloxane,C$_{24}$H$_{39}$N$_{3}$O$_{3}$Si$_{3}$
,,,,,Climbazole,C$_{15}$H$_{17}$ClN$_{2}$O$_{2}$
118-119,,,,,Hydrofuramide,C$_{15}$H$_{12}$N$_{2}$O$_{3}$
200-205,,,,154.12,Gentisic acid,C$_{7}$H$_{6}$O$_{4}$
,,,,,Magnesium chromate,MgCrO$_{4}$
,,,,,White catalyst,C$_{18}$H$_{20}$O$_{6}$PdS$_{2}$
,,,,,LY-215 840,
,,,,254.30546,Sulfadicramide,C$_{11}$H$_{14}$N$_{2}$O$_{3}$S
,,163-164,,136.23,Sabinene,C$_{10}$H$_{16}$
763,,,"insoluble (anhydrous IrCl$_{3}$), soluble (hydrated derivative)",298.58,Iridium(III) chloride,IrCl$_{3}$
190,3.82,,0.553,323.3648,Lead(II) thiocyanate,Pb(SCN)$_{2}$
242-244,,,,,Oxalyldihydrazide,C$_{2}$H$_{6}$N$_{4}$O$_{2}$
,,,,,Ethylmethylamine,C$_{3}$H$_{9}$N
,,,,,Ethocybin,C$_{14}$H$_{21}$N$_{2}$O$_{4}$P
,,,,,Mebutizide,C$_{13}$H$_{20}$ClN$_{3}$O$_{4}$S$_{2}$
,,,,302.03,Uranyl peroxide,UO$_{4}$.NH$_{2}$O
779,3.956,1100,64.6,293.887,Calcium iodide,CaI$_{2}$
,3.48,,,852.81,Decacarbonyldihydridotriosmium,H$_{2}$Os$_{3}$(CO)$_{10}$
,,,,,Atagabalin,C$_{10}$H$_{19}$NO$_{2}$
25.2,0.96,231,Insoluble,150.22,Carvone,C$_{10}$H$_{14}$O
134,1.8,,,,Cadmium stearate,C$_{36}$H$_{70}$CdO$_{4}$
,,,72g/L H2O at 25$^{\circ}$C,,Dimethylol ethylene urea,(C$_{2}$H$_{2}$N$_{2}$(CH$_{2}$OH)$_{2}$)CO
,,,,356.41,Myricanone,C$_{21}$H$_{24}$O$_{5}$
232,1.957,,,217.054,Arsanilic acid,C$_{6}$H$_{8}$AsNO$_{3}$
154-156,,520.4,,330.37,Picrocrocin,C$_{16}$H$_{26}$O$_{7}$
272,3.675,,300,149.912,Caesium hydroxide,CsOH
,,,,,Almokalant,C$_{18}$H$_{28}$N$_{2}$O$_{3}$S
,,,,192.3,Damascone,C$_{13}$H$_{20}$O
,,153.7,,,Barrelene,C$_{8}$H$_{8}$
,,,,,Chlormerodrin,C$_{5}$H$_{11}$ClHgN$_{2}$O$_{2}$
,,,,,Chiniofon,C$_{9}$H$_{6}$INO$_{4}$S
250,,,,576.72,Oleandrin,C$_{32}$H$_{48}$O$_{9}$
,,,,,Dolichol monophosphate mannose,C$_{106}$H$_{175}$O$_{9}$P
,,,,641.02,Tyropanoic acid,C$_{15}$H$_{18}$I$_{3}$NO$_{3}$
,,,,,Canadine,C$_{20}$H$_{21}$NO$_{4}$
,,,,,BD1063,C$_{13}$H$_{18}$N$_{2}$Cl$_{2}$
83,,,low,,Acetoacetanilide,C$_{10}$H$_{11}$NO$_{2}$