Name,formula,Property Molar Mass,Property Molar Mass units,Property Melting Point,Property Melting Point units,Property Density,Property Density units,Property Boiling Point,Property Boiling Point units,Property Solubility
Thiazole,C$_{3}$H$_{3}$NS,,,,,,,116-118,$^{\circ}$C,
Diethylpyrocarbonate,C$_{6}$H$_{10}$O$_{5}$,,,,,,,93-94,$^{\circ}$C,
Lutein,C$_{40}$H$_{56}$O$_{2}$,568.871,g/mol,190,$^{\circ}$C,,,,,Insoluble
Ozagrel,C$_{13}$H$_{12}$N$_{2}$O$_{2}$,,,,,,,,,
Pranidipine,C$_{25}$H$_{24}$N$_{2}$O$_{6}$,,,,,,,,,
Propionaldehyde,C$_{3}$H$_{6}$O,,,-81,$^{\circ}$C,,,46,$^{\circ}$C,20
Phenindamine,C$_{19}$H$_{19}$N,,,,,,,,,
Pethidine intermediate A,,,,,,,,,,
Bilirubin diglucuronide,C$_{45}$H$_{52}$N$_{4}$O$_{18}$,936.911,g/mol,,,,,,,
Stizolobic acid,C$_{9}$H$_{9}$NO$_{6}$,,,304.65,$^{\circ}$C,,,528.25,$^{\circ}$C,2.634e+005
Clodronic acid,,,,,,,,,,
Xanthurenic acid,C$_{10}$H$_{7}$NO$_{4}$,205.17,g/mol,286,$^{\circ}$C,,,,,Insoluble
Bucetin,C$_{12}$H$_{17}$NO$_{3}$,,,,,,,,,
Tetrahydrofolic acid,C$_{19}$H$_{23}$N$_{7}$O$_{6}$,445.43,g/mol,,,,,,,
Mimosine,C$_{8}$H$_{10}$N$_{2}$O$_{4}$,,,291,$^{\circ}$C,,,,,
Caffeic acid,C$_{9}$H$_{8}$O$_{4}$,180.16,g/mol,223-225,$^{\circ}$C,1.478,g/cm$^{3}$,,,
Thebacon,C$_{20}$H$_{23}$NO$_{4}$,,,,,,,,,
Flavin adenine dinucleotide,C$_{27}$H$_{33}$P$_{2}$N$_{9}$O$_{15}$,,,,,,,,,
Acesulfame potassium,C$_{4}$H$_{4}$KNO$_{4}$S,,,225,$^{\circ}$C,1.81,g/cm$^{3}$,,,270
Squalane,C$_{30}$H$_{62}$,,,-38,$^{\circ}$C,,,176,$^{\circ}$C,
Vintafolide,C$_{86}$H$_{109}$N$_{21}$O$_{26}$S$_{2}$,,,,,,,,,
Silibinin,C$_{25}$H$_{22}$O$_{10}$,,,,,,,,,
Fenmetozole,C$_{10}$H$_{10}$Cl$_{2}$N$_{2}$O,,,,,,,,,
Cyclobis(paraquat-p-phenylene),C$_{36}$H$_{32}$N$_{4}$,,,,,,,,,
Pholcodine,C$_{23}$H$_{30}$N$_{2}$O$_{4}$,,,,,,,,,
Naratriptan,C$_{17}$H$_{25}$N$_{3}$O$_{2}$S,,,,,,,,,
Momilactone B,C$_{20}$H$_{26}$O$_{4}$,330.4180,g/mol,242,$^{\circ}$C,,,,,
Phenylbenzimidazole sulfonic acid,C$_{13}$H$_{10}$N$_{2}$O$_{3}$S,274.30,g/mol,,,,,,,
Aluminium phosphate,AlPO$_{4}$,121.9529,g/mol,1800,$^{\circ}$C,,,,,insoluble
Sevelamer,chemical_formula[(C$_{3}$H$_{7}$N)$_{a+b}$.(C$_{9}$H$_{17}$N$_{2}$O)$_{c}$]$_{m}$; wherea+b:c9:,,,,,,,,,
Mefenamic acid,,,,,,,,,,
Sodium triacetoxyborohydride,C$_{6}$H$_{10}$BNaO$_{6}$,211.96,g/mol,116-120,$^{\circ}$C,1.20,g/cm$^{3}$,,,decomposition
Budesonide,C$_{25}$H$_{34}$O$_{6}$,,,,,,,,,
Dexketoprofen,C$_{16}$H$_{14}$O$_{3}$,,,,,,,,,
Mepixanox,C$_{20}$H$_{21}$NO$_{3}$,,,,,,,,,
Tidiacic,C$_{5}$H$_{7}$NO$_{4}$S,,,,,,,,,
Indium acetylacetonate,InC$_{15}$H$_{21}$O$_{6}$,,,,,,,,,
Zotepine,C$_{18}$H$_{18}$ClNOS,,,,,,,,,
NCS-382,C$_{13}$H$_{14}$O$_{3}$,,,,,,,,,
Benz(a)anthracene,C$_{18}$H$_{12}$,,,158,$^{\circ}$C,1.19,g/cm$^{3}$,438,$^{\circ}$C,
Platelet-activating factor,C$_{26}$H$_{54}$NO$_{7}$P,,,,,,,,,
Panaxytriol,C$_{17}$H$_{26}$O$_{3}$,278.39,g/mol,,,,,,,
Tellimagrandin II,C$_{41}$H$_{30}$O$_{26}$,938.66,g/mol,,,,,,,
Indian yellow,C$_{19}$H$_{16}$O$_{10}$,,,,,,,,,
Human chorionic gonadotropin,,,,,,,,,,
Viomycin,C$_{25}$H$_{43}$N$_{13}$O$_{10}$,,,,,,,,,
Butyrfentanyl,C$_{23}$H$_{30}$N$_{2}$O,,,,,,,,,
Diethyl dithiophosphoric acid,C$_{4}$H$_{11}$O$_{2}$PS$_{2}$,,,< 0,$^{\circ}$C,,,66,$^{\circ}$C,
Cilobamine,C$_{17}$H$_{23}$Cl$_{2}$NO,,,,,,,,,
Oleoyl-estrone,C$_{36}$H$_{54}$O$_{3}$,,,,,,,,,
Dupracetam,C$_{12}$H$_{18}$N$_{4}$O$_{4}$,,,,,,,,,
Allylamine,C$_{3}$H$_{7}$N,,,-88,$^{\circ}$C,,,55,$^{\circ}$C,
Bolazine,C$_{40}$H$_{64}$N$_{2}$O$_{2}$,604.95,g/mol,,,,,,,
Flunoxaprofen,C$_{16}$H$_{12}$FNO$_{3}$,,,,,,,,,
Sodium dodecyl sulfate,NaC$_{12}$H$_{25}$SO$_{4}$,288.372,g/mol,206,$^{\circ}$C,1.01,g/cm$^{3}$,,,
Phenylarsonic acid,C$_{6}$H$_{7}$AsO$_{3}$,,,154-158,$^{\circ}$C,,,,,low
Coprine,C$_{8}$H$_{14}$N$_{2}$O$_{4}$,,,197,$^{\circ}$C,,,,,
Katanosin,C$_{58}$H$_{97}$N$_{15}$O$_{17}$,,,,,1.42,g/cm$^{3}$,,,
Surfactin,C$_{53}$H$_{93}$N$_{7}$O$_{13}$,1036.3,g/mol,,,,,,,
Prenylamine,C$_{24}$H$_{27}$N,,,,,,,,,
Geranyl acetate,C$_{12}$H$_{20}$O$_{2}$,,,,,,,240,$^{\circ}$C,
Desmethylclozapine,C$_{17}$H$_{17}$ClN$_{4}$,,,,,,,,,
Cefovecin,C$_{17}$H$_{19}$N$_{5}$O$_{6}$S$_{2}$,,,,,,,,,
Penamecillin,C$_{19}$H$_{22}$N$_{2}$O$_{6}$S,,,,,,,,,
Sodium methoxide,CH$_{3}$NaO,,,127,$^{\circ}$C,,,>300,$^{\circ}$C,
Eticlopride,C$_{17}$H$_{25}$ClN$_{2}$O$_{3}$,,,,,,,,,
Elobixibat,C$_{36}$H$_{45}$N$_{3}$O$_{7}$S$_{2}$,,,,,,,,,
Givinostat,C$_{24}$H$_{27}$N$_{3}$O$_{4}$,,,,,,,,,
Triethylborane,C$_{6}$H$_{15}$B,98.00,g/mol,-93,$^{\circ}$C,0.677,g/cm$^{3}$,95,$^{\circ}$C,"N/A, Highly reactive"
Metribolone,C$_{19}$H$_{24}$O$_{2}$,,,,,,,,,
Nitryl fluoride,NO$_{2}$F,65.0039,g/mol,-166,$^{\circ}$C,,,-72,$^{\circ}$C,
Ibuproxam,C$_{13}$H$_{19}$NO$_{2}$,,,,,,,,,
Peroxydisulfuric acid,H$_{2}$S$_{2}$O$_{8}$,,,65,$^{\circ}$C,,,,,soluble
Iodixanol,C$_{35}$H$_{44}$I$_{6}$N$_{6}$O$_{15}$,,,,,,,,,
Piribedil,C$_{16}$H$_{18}$N$_{4}$O$_{2}$,,,,,,,,,
Furaneol,C$_{6}$H$_{8}$O$_{3}$,128.13,g/mol,73-77,$^{\circ}$C,,,,,
Pentamethylcyclopentadienyl ruthenium dichloride dimer,C$_{20}$H$_{30}$Cl$_{4}$Ru$_{2}$,,,,,,,,,
Coronene,C$_{24}$H$_{12}$,,,438,$^{\circ}$C,,,525,$^{\circ}$C,0.14
Schwartz's reagent,C$_{10}$H$_{11}$ClZr,257.87,g/mol,,,,,,,
TB-21007,C$_{15}$H$_{17}$NO$_{2}$S$_{3}$,,,,,,,,,
Tosufloxacin,C$_{19}$H$_{15}$F$_{3}$N$_{4}$O$_{3}$,,,,,,,,,
Ivermectin,C48H74O14(22.23-dihydroavermectinB$_{1a}$); <big>C$_{47}$H$_{72}$O$_{14}$</big>(22.23-dihydroavermectinB$_{1b}$),,,,,,,,,
Dicoumarol,C$_{19}$H$_{12}$O$_{6}$,,,,,,,,,
Cyclohexanone oxime,C$_{6}$H$_{11}$NO,113.16,g/mol,88-91,$^{\circ}$C,,,204-206,$^{\circ}$C,insoluble
Nemifitide,C$_{33}$H$_{43}$FN$_{10}$O$_{6}$,,,,,,,,,
Crotonyl-CoA,C$_{25}$H$_{40}$N$_{7}$O$_{17}$P$_{3}$S,835.609,g/mol,,,,,,,
Pleuran,(C$_{6}$H$_{10}$O$_{5}$)$_{x}$,,,,,,,,,
Diphepanol,C$_{20}$H$_{25}$NO,,,,,,,,,
Caroverine,C$_{22}$H$_{27}$N$_{3}$O$_{2}$,,,,,,,,,
Ethyl protocatechuate,C$_{9}$H$_{10}$O$_{4}$,182.17,g/mol,132-135,$^{\circ}$C,,,357-358,$^{\circ}$C,Insoluble in water
Quinbolone,C$_{24}$H$_{32}$O$_{2}$,,,,,,,,,
Mercury(II) hydride,HgH$_{2}$,,,,,,,,,
Thiopropazate,C$_{23}$H$_{28}$ClN$_{3}$O$_{2}$S,,,,,,,,,
Benzyl benzoate,C$_{14}$H$_{12}$O$_{2}$,,,18,$^{\circ}$C,1.118,g/cm$^{3}$,323,$^{\circ}$C,insoluble
Sodium percarbonate,Na$_{2}$CO$_{3}$.1.5H$_{2}$O$_{2}$,,,,,,,,,150
JWH-203,C$_{21}$H$_{22}$ClNO,,,,,,,,,
Echinacoside,C$_{35}$H$_{46}$O$_{20}$,786.73,g/mol,200-220,$^{\circ}$C,,,,,
Ethion,C$_{9}$H$_{22}$O$_{4}$P$_{2}$S$_{4}$,384.48,g/mol,-12.2,$^{\circ}$C,1.22,g/cm$^{3}$,150,$^{\circ}$C,0.0001% (20$^{\circ}$C)
Myrcenol,C$_{10}$H$_{18}$O,154.24,g/mol,,,0.85,g/cm$^{3}$,,,
Benzyl butyl phthalate,C$_{19}$H$_{20}$O$_{4}$,,,-35,$^{\circ}$C,,,370,$^{\circ}$C,
Friedelin,C$_{30}$H$_{50}$O,,,,,,,,,
Benzyl cinnamate,C$_{16}$H$_{14}$O$_{2}$,,,34,$^{\circ}$C,,,195,$^{\circ}$C,insoluble
Molybdenum(II) chloride,Cl$_{12}$Mo$_{6}$,,,,,,,,,low
Sodium ethyl xanthate,C$_{3}$H$_{5}$OS$_{2}$Na,,,182-256,$^{\circ}$C,1.263,g/cm$^{3}$,,,450
Bromocyclohexane,C$_{6}$H$_{11}$Br,163.06,g/mol,,,1.324,g/cm$^{3}$,166-167,$^{\circ}$C,
Fagaronine,C$_{21}$H$_{20}$NO$_{4}$,350.39,g/mol,,,,,,,
Celastrol,C$_{29}$H$_{38}$O$_{4}$,,,213,$^{\circ}$C,,,,,
Coenzyme A,C$_{21}$H$_{36}$N$_{7}$O$_{16}$P$_{3}$S,,,,,,,,,
Syringaresinol,C$_{22}$H$_{26}$O$_{8}$,418.43,g/mol,,,,,,,
Zinc phosphide,Zn$_{3}$P$_{2}$,258.12,g/mol,1160,$^{\circ}$C,4.55,g/cm$^{3}$,,,insoluble
Potassium heptafluorotantalate,K$_{2}$TaF$_{7}$,392.13,g/mol,630-820,$^{\circ}$C,,,,,0.5
Eltoprazine,C$_{12}$H$_{16}$N$_{2}$O$_{2}$,,,,,,,,,
Iron(II) gluconate,C$_{12}$H$_{22}$FeO$_{14}$,,,188,$^{\circ}$C,,,,,soluble
Brown HT,C$_{27}$H$_{18}$N$_{4}$Na$_{2}$O$_{9}$S$_{2}$,652.56,g/mol,,,,,,,
Guibourtinidin,C$_{15}$H$_{11}$O$_{4}$+Cl$^{-}$,255.24,g/mol,,,,,,,
Trimyristin,C$_{45}$H$_{86}$O$_{6}$,,,56-57,$^{\circ}$C,0.862,g/cm$^{3}$,311,$^{\circ}$C,
Oxybuprocaine,C$_{17}$H$_{28}$N$_{2}$O$_{3}$,,,,,,,,,
Tricyclobutabenzene,C$_{12}$H$_{12}$,,,,,,,,,
Erythrose 4-phosphate,C$_{4}$H$_{9}$O$_{7}$P,200.084,g/mol,,,,,,,
Corynanthine,C$_{21}$H$_{26}$N$_{2}$O$_{3}$,,,,,,,,,
Methylrhenium trioxide,CH$_{3}$ReO$_{3}$,249.24,g/mol,112,$^{\circ}$C,,,,,highly soluble in water
Obinutuzumab,C$_{6512}$H$_{10060}$N$_{1712}$O$_{2020}$S$_{44}$,,,,,,,,,
Chromium(II) sulfate,CrSO$_{4}$5H$_{2}$O,,,,,,,,,21
Sinensetin,C$_{20}$H$_{20}$O$_{7}$,372.36,g/mol,,,,,,,
Niobium oxychloride,NbOCl$_{3}$,,,sublimes above 200,$^{\circ}$C,,,,,
Clodantoin,C$_{11}$H$_{17}$Cl$_{3}$N$_{2}$O$_{2}$S,,,,,,,,,
Medroxalol,C$_{20}$H$_{24}$N$_{2}$O$_{5}$,,,,,,,,,
Loratadine,C$_{22}$H$_{23}$ClN$_{2}$O$_{2}$,,,,,,,,,
Diphenylchlorarsine,C$_{12}$H$_{10}$AsCl,,,40-42,$^{\circ}$C,1.55,g/cm$^{3}$,,,
Clorazepate,C$_{16}$H$_{11}$ClN$_{2}$O$_{3}$,,,,,,,,,
Caesium perchlorate,CsClO$_{4}$,232.36,g/mol,250,$^{\circ}$C,3.327,g/cm$^{3}$,,,1.974
Potassium nitrate,KNO$_{3}$,101.1032,g/mol,334,$^{\circ}$C,2.109,g/cm$^{3}$,decomposes at 400,$^{\circ}$C,133
Titanium(II) chloride,TiCl$_{2}$,,,1035,$^{\circ}$C,3.13,g/cm$^{3}$,1500,$^{\circ}$C,
Umeclidinium bromide,,,,,,,,,,
Tetrabenazine,C$_{19}$H$_{27}$NO$_{3}$,,,,,,,,,
CP-154 526,C$_{23}$H$_{32}$N$_{4}$,,,,,,,,,
Diflubenzuron,C$_{14}$H$_{9}$ClF$_{2}$N$_{2}$O$_{2}$,,,,,,,,,0.08
Dixanthogen,C$_{6}$H$_{10}$O$_{2}$S$_{4}$,,,,,,,,,
Potassium hypochlorite,KClO,90.55,g/mol,-2,$^{\circ}$C,1.160,g/cm$^{3}$,102,$^{\circ}$C,25%
Diphenyl sulfone,C$_{12}$H$_{10}$O$_{2}$S,,,123,$^{\circ}$C,,,379,$^{\circ}$C,
Iron(II) oxide,FeO,71.844,g/mol,1377,$^{\circ}$C,5.745,g/cm$^{3}$,3414,$^{\circ}$C,Insoluble
Bensulide,C$_{14}$H$_{24}$NO$_{4}$PS$_{3}$,397.513,g/mol,34.4,$^{\circ}$C,,,,,Water: 5.6
Ferrichrome,C$_{27}$H$_{42}$FeN$_{9}$O$_{12}$,740.52,g/mol,,,,,,,
Acacetin,C$_{16}$H$_{12}$O$_{5}$,284.26,g/mol,,,,,,,
Nitrogen dioxide,NO$^{.}_{2}$,,,-11.2,$^{\circ}$C,,,21.2,$^{\circ}$C,Hydrolyses
Vinconate,C$_{18}$H$_{20}$N$_{2}$O$_{2}$,,,,,,,,,
Ethylaluminium sesquichloride,(C$_{2}$H$_{5}$)$_{2}$AlCl.Cl$_{2}$AlC$_{2}$H$_{5}$,247.51,g/mol,-50,$^{\circ}$C,1.092,g/cm$^{3}$,204,$^{\circ}$C,
Fremy's salt,K$_{2}$NO(SO$_{3}$)$_{2}$,268.33,g/mol,,,,,,,
Ammonium chlorate,NH$_{4}$ClO$_{3}$,,,380,$^{\circ}$C,2.42,g/cm$^{3}$,,,
Talbutal,C$_{11}$H$_{16}$N$_{2}$O$_{3}$,,,,,,,,,
Akuammicine,C$_{20}$H$_{22}$N$_{2}$O$_{2}$,,,182,$^{\circ}$C,,,,,
Neuromedin N,C$_{38}$H$_{63}$N$_{7}$O$_{8}$,,,,,,,,,
Fluprednidene acetate,,,,,,,,,,
Dideoxyverticillin A,C$_{30}$H$_{28}$N$_{6}$O$_{4}$S$_{4}$,664.84,g/mol,,,,,,,
Bismuth telluride,Bi$_{2}$Te$_{3}$,800.761,g/mol,586,$^{\circ}$C,7.642,g/cm$^{3}$,,,insoluble
Urolithin B,C$_{13}$H$_{8}$O$_{3}$,212.21,g/mol,,,,,,,
Biotin,C$_{10}$H$_{16}$N$_{2}$O$_{3}$S,,,232-233,$^{\circ}$C,,,,,22
Ponceau 2R,C$_{18}$H$_{16}$N$_{2}$O$_{7}$S$_{2}$,,,,,,,,,
Ibrutinib,chemical_formulaC$_{231}$H$_{350}$N$_{62}$O$_{58}$S$_{6}$[C$_{2}$H$_{4}$O]$_{n}$,,,,,,,,,
Nicergoline,C$_{24}$H$_{26}$BrN$_{3}$O$_{3}$,,,,,,,,,
Remacemide,C$_{17}$H$_{20}$N$_{2}$O,,,,,,,,,
Sodium stearate,C$_{18}$H$_{35}$NaO$_{2}$,,,245,$^{\circ}$C,1.02,g/cm$^{3}$,,,soluble
Protactinium(V) chloride,PaCl$_{5}$,408.301,g/mol,306,$^{\circ}$C,3.74,g/cm$^{3}$,420,$^{\circ}$C,
Disulfur dinitride,S$_{2}$N$_{2}$,92.1444,g/mol,,,,,,,
Volasertib,C$_{23}$H$_{25}$BrN$_{2}$O$_{3}$,,,,,,,,,
Ro15-4513,C$_{15}$H$_{14}$N$_{6}$O$_{3}$,,,,,,,,,
Tiadenol,C$_{14}$H$_{30}$O$_{2}$S$_{2}$,,,,,,,,,
AMN082,C$_{28}$H$_{30}$Cl$_{2}$N$_{2}$,,,,,,,,,
Romifidine,C$_{9}$H$_{9}$BrFN$_{3}$,,,,,,,,,
Epichlorohydrin,C$_{3}$H$_{5}$ClO,92.52,g/mol,-25.6,$^{\circ}$C,1.1812,g/cm$^{3}$,117.9,$^{\circ}$C,7% (20$^{\circ}$C)
Theobromine,C$_{7}$H$_{8}$N$_{4}$O$_{2}$,,,,,,,,,
Sulfamethoxypyridazine,C$_{11}$H$_{12}$N$_{4}$O$_{3}$S,,,,,,,,,
N-Methylhydroxylamine,CNOH$_{5}$,,,38.5,$^{\circ}$C,,,115.0,$^{\circ}$C,
Methylenecyclopropane,C$_{4}$H$_{6}$,,,,,0.8,g/cm$^{3}$,9-12,$^{\circ}$C,
Quinalphos,C$_{12}$H$_{15}$N$_{2}$O$_{3}$PS,,,31,$^{\circ}$C,,,,,17.8
Dodecacalcium hepta-aluminate,Ca$_{12}$Al$_{14}$O$_{33}$,,,1400,$^{\circ}$C,,,,,
Epoxiconazole,C$_{17}$H$_{13}$ClFN$_{3}$O,,,134,$^{\circ}$C,1.374,g/cm$^{3}$,,,8.42
Chlorofluoromethane,CH$_{2}$ClF,68.48,g/mol,-133.0,$^{\circ}$C,,,-9.1,$^{\circ}$C,
Sodium polyacrylate,(C$_{3}$H$_{3}$NaO$_{2}$)$_{n}$,,,,,1.22,g/cm$^{3}$,,,
Selenium oxybromide,SeOBr$_{2}$,254.77,g/mol,41.6,$^{\circ}$C,,,,,
A-Methylfentanyl,C$_{23}$H$_{30}$N$_{2}$O,,,,,,,,,
Benzododecinium bromide,C$_{21}$H$_{38}$N$^{+}$.Br$^{-}$,,,,,,,,,
Silicon sulfide,SiS$_{2}$,92.218,g/mol,1090,$^{\circ}$C,1.853,g/cm$^{3}$,,,Decomposes
Hydroxytyrosol,C$_{8}$H$_{10}$O$_{3}$,154.163193,g/mol,,,,,174,$^{\circ}$C,5
Emedastine,C$_{17}$H$_{26}$N$_{4}$O,,,,,,,,,
DABCO,C$_{6}$H$_{12}$N$_{2}$,,,156,$^{\circ}$C,,,174,$^{\circ}$C,"Soluble, hygroscopic"
Tesofensine,C$_{17}$H$_{23}$Cl$_{2}$NO,,,,,,,,,
Droxypropine,C$_{18}$H$_{27}$NO$_{3}$,,,,,,,,,
Retusin (isoflavone),C$_{16}$H$_{12}$O$_{5}$,284.26,g/mol,,,,,,,
Vanadium(V) oxide,V$_{2}$O$_{5}$,181.8800,g/mol,690,$^{\circ}$C,3.357,g/cm$^{3}$,1750,$^{\circ}$C,0.8
Nylon 46,(C$_{10}$H$_{18}$N$_{2}$O$_{2}$)$_{n}$,,,,,,,,,
Chloramphenicol,C$_{11}$H$_{12}$Cl$_{2}$N$_{2}$O$_{5}$,,,,,,,,,
Isopropyl nitrite,,,,,,0.8684,g/cm$^{3}$,40,$^{\circ}$C,
Iodite,IO$^{-}_{2}$,,,,,,,,,
Teixobactin,C$_{15}$H$_{25}$NO$_{3}$,,,,,,,,,
Glucal,C$_{6}$H$_{10}$O$_{4}$,,,58-60,$^{\circ}$C,,,,,
Aminomethylbenzoic acid,,,,300,$^{\circ}$C,1.239,g/cm$^{3}$,310.7,$^{\circ}$C,
Pterin,C$_{6}$H$_{5}$N$_{5}$O,,,,,,,,,
Glucuronolactone,C$_{6}$H$_{8}$O$_{6}$,,,176-178,$^{\circ}$C,1.76,g/cm$^{3}$,,,26.9
Thiodiglycol,C$_{4}$H$_{10}$O$_{2}$S,122.19,g/mol,-16,$^{\circ}$C,,,165,$^{\circ}$C,
Clostebol,C$_{19}$H$_{27}$ClO$_{2}$,,,,,,,,,
Mercury(I) iodide,Hg$_{2}$I$_{2}$,,,,,,,,,
Allysine,C$_{6}$H$_{11}$NO$_{3}$,,,,,,,295.2,$^{\circ}$C,
Pepstatin,C$_{34}$H$_{63}$N$_{5}$O$_{9}$,,,,,,,,,
Silver tetrafluoroborate,AgBF$_{4}$,194.673,g/mol,71.5,$^{\circ}$C,0.936,g/cm$^{3}$,,,soluble
Aquayamycin,C$_{25}$H$_{26}$O$_{10}$,486.47,g/mol,,,,,,,
Pregnane,C$_{21}$H$_{36}$,288.511,g/mol,,,,,,,
Octaethylene glycol monododecyl ether,C$_{28}$H$_{58}$O$_{9}$,,,,,,,,,
Taribavirin,C$_{8}$H$_{13}$N$_{5}$O$_{4}$,,,,,,,,,
Ambrisentan,C$_{22}$H$_{22}$N$_{2}$O$_{4}$,,,,,,,,,
Resorcinol,C$_{6}$H$_{6}$O$_{2}$,110.1,g/mol,110,$^{\circ}$C,,,277,$^{\circ}$C,110
Simple dapsone,C$_{12}$H$_{12}$N$_{2}$O$_{2}$S,,,,,,,,,
Teplizumab,C$_{6462}$H$_{9938}$N$_{1738}$O$_{2022}$S$_{46}$,,,,,,,,,
Gyrinal,C$_{14}$H$_{18}$O$_{3}$,234.29,g/mol,0,$^{\circ}$C,,,,,
Alemtuzumab,C$_{6468}$H$_{10066}$N$_{1732}$O$_{2005}$S$_{40}$,,,,,,,,,
Mannitol hexanitrate,C$_{6}$H$_{8}$N$_{6}$O$_{18}$,452.15,g/mol,112,$^{\circ}$C,1.73,g/cm$^{3}$,,,insoluble
Dimethylamidophosphoric dichloride,C$_{2}$H$_{6}$OPCl$_{2}$,,,0,$^{\circ}$C,,,,,
Ulipristal acetate,,,,,,,,,,
Propionic acid,C$_{3}$H$_{6}$O$_{2}$,,,-20.5,$^{\circ}$C,0.98797,g/cm$^{3}$,141.15,$^{\circ}$C,8.19
Tetraphenylporphyrin,C$_{44}$H$_{30}$N$_{4}$,614.74,g/mol,,,1.27,g/cm$^{3}$,,,insoluble in water
Caldarchaeol,C$_{86}$H$_{172}$O$_{6}$,1302.28,g/mol,,,,,,,
Suberic acid,C$_{8}$H$_{14}$O$_{4}$,,,141-144,$^{\circ}$C,1.272,g/cm$^{3}$,230,$^{\circ}$C,2.46
Sulfanyl,HS$^{.}$,,,,,,,,,Reacts
Metostilenol,C$_{15}$H$_{21}$NO$_{3}$,,,,,,,,,
Sitagliptin,C$_{16}$H$_{15}$F$_{6}$N$_{5}$O,,,,,,,,,
Amyl acetate,C$_{7}$H$_{14}$O$_{2}$,130.19,g/mol,-71,$^{\circ}$C,0.876,g/cm$^{3}$,,,
Pemoline,C$_{9}$H$_{8}$N$_{2}$O$_{2}$,,,,,,,,,
JWH-015,C$_{23}$H$_{21}$NO,,,,,,,,,
Psychotridine,C$_{55}$H$_{62}$N$_{10}$,,,,,,,,,
Tetrahydrogestrinone,C$_{21}$H$_{28}$O$_{2}$,,,,,,,,,
Chlorobis(ethylene)rhodium dimer,C$_{8}$H$_{16}$Cl$_{2}$Rh$_{2}$,,,,,,,,,
Sodium diethyldithiocarbamate,C$_{5}$H$_{10}$NS$_{2}$Na,171.259,g/mol,95,$^{\circ}$C,1.1,g/cm$^{3}$,,,Soluble
Scheele's Green,AsCuHO$_{3}$,,,,,,,,,
Algestone acetophenide,C$_{29}$H$_{36}$O$_{4}$,448.59,g/mol,,,,,,,
Hippuric acid,C$_{9}$H$_{9}$NO$_{3}$,179.17,g/mol,187-188,$^{\circ}$C,1371,g/cm$^{3}$,240,$^{\circ}$C,
Tenofovir,C$_{9}$H$_{14}$N$_{5}$O$_{4}$P,,,,,,,,,
CCK-4,C$_{29}$H$_{35}$N$_{5}$O$_{7}$S,,,,,,,,,
Fluorine azide,FN$_{3}$,61.019,g/mol,-152,$^{\circ}$C,,,-82,$^{\circ}$C,
Talinolol,C$_{20}$H$_{33}$N$_{3}$O$_{3}$,,,,,,,,,
Met-enkephalin,C$_{27}$H$_{35}$N$_{5}$SO$_{7}$,,,,,,,,,
Macromerine,C$_{12}$H$_{19}$NO$_{3}$,225.284,g/mol,,,,,,,
QH-II-66,C$_{18}$H$_{14}$N$_{2}$O,,,,,,,,,
Techtochrysin,C$_{16}$H$_{12}$O$_{4}$,268.26,g/mol,,,,,,,
N-Acetylgalactosamine,C$_{8}$H$_{15}$NO$_{6}$,221.21,g/mol,172-173,$^{\circ}$C,,,,,
Biphenylene,C$_{12}$H$_{8}$,152.19,g/mol,109-111,$^{\circ}$C,,,,,
Tetrahydrobiopterin,C$_{9}$H$_{15}$N$_{5}$O$_{3}$,,,,,,,,,
Bornaprine,C$_{21}$H$_{31}$NO$_{2}$,,,,,,,,,
Iron(III) sulfide,Fe$_{2}$S$_{3}$,207.90,g/mol,,,4.3,g/cm$^{3}$,,,very slightly soluble
Mirodenafil,C$_{26}$H$_{37}$N$_{5}$O$_{5}$S,,,,,,,,,
Yttrium (90Y) clivatuzumab tetraxetan,,,,,,,,,,
Pyridine,C$_{5}$H$_{5}$N,,,-41.6,$^{\circ}$C,,,115.2,$^{\circ}$C,Miscible
Chloroxylenol,C$_{8}$H$_{9}$ClO,,,114,$^{\circ}$C,,,,,
Hydrocodone,C$_{18}$H$_{21}$NO$_{3}$,,,,,,,,,
Flavan-4-ol,C$_{15}$H$_{14}$O$_{2}$,226.27,g/mol,,,,,,,
Tetrafucol A,C$_{24}$H$_{18}$O$_{12}$,498.392,g/mol,,,,,,,
Quercetagetin,C$_{15}$H$_{10}$O$_{8}$,318.23,g/mol,,,,,,,
Alcuronium chloride,,,,,,,,,,
Raspberry ellagitannin,C$_{116}$H$_{76}$O$_{74}$,2653.79,g/mol,,,,,,,
Carbamic acid,CH$_{3}$NO$_{2}$,61.040,g/mol,,,,,,,
Fenpropimorph,C$_{20}$H$_{33}$NO,,,,,,,120,$^{\circ}$C,4.3
Aspidophytine,C$_{22}$H$_{26}$N$_{2}$O$_{4}$,382.45,g/mol,,,,,,,
Bremazocine,C$_{20}$H$_{29}$NO$_{2}$,,,,,,,,,
Jervine,C$_{27}$H$_{39}$NO$_{3}$,425.60,g/mol,,,,,,,
Rhenium trioxide,ReO$_{3}$,234.205,g/mol,400,$^{\circ}$C,6.92,g/cm$^{3}$,,,
Carboxycyclophosphamide,C$_{7}$H$_{15}$Cl$_{2}$N$_{2}$O$_{4}$P,,,,,,,,,
Bismuth oxychloride,BiOCl,,,,,,,,,insoluble
Lidocaine,C$_{14}$H$_{22}$N$_{2}$O,,,,,,,,,
Taxifolin,C$_{15}$H$_{12}$O$_{7}$,,,,,,,,,
Darifenacin,C$_{28}$H$_{30}$N$_{2}$O$_{2}$,,,,,,,,,
Gaboxadol,C$_{6}$H$_{8}$N$_{2}$O$_{2}$,,,,,,,,,
Mephenesin,C$_{10}$H$_{14}$O$_{3}$,,,,,,,,,
Cyclobutyrol,C$_{10}$H$_{18}$O$_{3}$,,,,,,,,,
Algarot,SbOCl,173.21,g/mol,280,$^{\circ}$C,,,,,insoluble
Apixaban,C$_{25}$H$_{25}$N$_{5}$O$_{4}$,,,,,,,,,
Epicatechin gallate,C$_{22}$H$_{18}$O$_{10}$,442.37,g/mol,,,,,,,
Osemozotan,C$_{20}$H$_{23}$NO$_{4}$,,,,,,,,,
Perfluorotributylamine,C$_{12}$F$_{27}$N,,,-50,$^{\circ}$C,,,178,$^{\circ}$C,Insoluble
Iron(II) acetate,C$_{4}$H$_{6}$FeO$_{4}$,,,190-200,$^{\circ}$C,1.734,g/cm$^{3}$,,,Soluble
Octyl acetate,C$_{10}$H$_{20}$O$_{2}$,,,-38.5--38,$^{\circ}$C,0.863-0.87,g/cm$^{3}$,203-211.3,$^{\circ}$C,0.021
Dexetimide,C$_{23}$H$_{26}$N$_{2}$O$_{2}$,,,,,,,,,
Nikethamide,C$_{10}$H$_{14}$N$_{2}$O,,,,,,,,,
Isoaminile,C$_{16}$H$_{24}$N$_{2}$,,,,,,,,,
IDNNA,C$_{13}$H$_{20}$NO$_{2}$I,349.211,g/mol,,,,,,,
Moramide intermediate,,,,,,,,,,
Prostaglandin E1,,,,,,,,,,
Lead tetrachloride,PbCl$_{4}$,349.012,g/mol,-15,$^{\circ}$C,,,50,$^{\circ}$C,Reacts
Dinitrogen pentoxide,N$_{2}$O$_{5}$,108.01,g/mol,41,$^{\circ}$C,1.642,g/cm$^{3}$,47,$^{\circ}$C,reacts to give HNO$_{3}$
Ro64-6198,C$_{26}$H$_{31}$N$_{3}$O,,,,,,,,,
Sulfaphenazole,C$_{15}$H$_{14}$N$_{4}$O$_{2}$S,,,,,,,,,
Satraplatin,C$_{10}$H$_{22}$Cl$_{2}$N$_{2}$O$_{4}$Pt,,,,,,,,,
Valaciclovir,C$_{13}$H$_{20}$N$_{6}$O$_{4}$,,,,,,,,,
Kelliphite,C$_{60}$H$_{72}$O$_{6}$P$_{2}$,,,,,,,,,organic solvents
Gallium(III) telluride,Ga$_{2}$Te$_{3}$,522.25,g/mol,790,$^{\circ}$C,5.57,g/cm$^{3}$,,,
Dunnite,C$_{6}$H$_{6}$N$_{4}$O$_{7}$,,,265,$^{\circ}$C,1.719,g/cm$^{3}$,,,10
Trichloroethylene,C$_{2}$HCl$_{3}$,141.4,g/mol,-73,$^{\circ}$C,1.46,g/cm$^{3}$,87.2,$^{\circ}$C,1.280
Betanin,C$_{24}$H$_{26}$N$_{2}$O$_{13}$,550.47,g/mol,,,,,,,
Copper(II) perchlorate,Cu(ClO$_{4}$)$_{2}$,262.447,g/mol,82,$^{\circ}$C,2.225,g/cm$^{3}$,120,$^{\circ}$C,146
Tebipenem,C$_{22}$H$_{31}$N$_{3}$O$_{6}$S$_{2}$,,,,,,,,,
Inositol nicotinate,,,,,,,,,,
Cyclododecane,C$_{12}$H$_{24}$,,,60.8,$^{\circ}$C,0.79,g/cm$^{3}$,244,$^{\circ}$C,
Phenytoin,C$_{15}$H$_{12}$N$_{2}$O$_{2}$,,,,,,,,,
Hycanthone,C$_{20}$H$_{24}$N$_{2}$O$_{2}$S,,,,,,,,,
PNU-99 194,,,,,,,,,,
Amylopectin,variable,,,,,,,,,
Syringin,C$_{17}$H$_{24}$O$_{9}$,,,192,$^{\circ}$C,,,,,
Chlorthiophos,C$_{11}$H$_{15}$Cl$_{2}$O$_{3}$PS$_{2}$,361.24,g/mol,,,,,,,
LP-44,C$_{27}$H$_{37}$N$_{3}$OS,,,,,,,,,
Caesium bromide,CsBr,212.81,g/mol,636,$^{\circ}$C,,,1300,$^{\circ}$C,1062
Periodic acid,H$_{5}$IO$_{6}$(orthoperiodic)HIO$_{4}$(metaperiodic),,,128.5,$^{\circ}$C,,,,,