Property Melting Point,Property Density,Property Boiling Point,Property Solubility,Property Molar Mass,Name,formula
,,,,,Risocaine,C$_{10}$H$_{13}$NO$_{2}$
,,,,,Enpiprazole,C$_{16}$H$_{21}$ClN$_{4}$
,,,,,Mycophenolic acid,
,,,,170.11954,Phloroglucinol carboxylic acid,C$_{7}$H$_{6}$O$_{5}$
500,4.89,,insoluble,335.7,Molybdenum(III) bromide,MoBr$_{3}$
,,,,,Fluanisone,C$_{21}$H$_{25}$FN$_{2}$O$_{2}$
,,,,177.22,N-Formylmethionine,C$_{6}$H$_{11}$NO$_{3}$S
,,,,,Voriconazole,C$_{16}$H$_{14}$F$_{3}$N$_{5}$O
160,,,,,Veratridine,C$_{36}$H$_{51}$NO
,,,,,Sparsomycin,C$_{13}$H$_{19}$N$_{3}$O$_{5}$S$_{2}$
,,,,,Fexofenadine,C$_{32}$H$_{39}$NO$_{4}$
770,1.984,1420,281,,Potassium chloride,KCl
87,,,,84.12,Lysidine (chemical),C$_{4}$H$_{8}$N$_{2}$
-77.73,,-33.34,47%,17.031,Chiefs of Brunapeg,NH$_{3}$
,,,,,Ocfentanil,C$_{22}$H$_{27}$FN$_{2}$O$_{2}$
,,,,,GW501516,C$_{21}$H$_{18}$F$_{3}$NO$_{3}$S$_{2}$
,,,,,Aranidipine,C$_{19}$H$_{20}$N$_{2}$O$_{7}$
205.5,1.82,234,insoluble,,RDX,C$_{3}$H$_{6}$O$_{6}$N$_{6}$
,,,,461.46,Cerium(III) methanesulfonate,Ce(CH$_{3}$SO$_{3}$)$_{3}$
,,,,,Rhodamine 123,C$_{21}$H$_{17}$ClN$_{2}$O$_{3}$
,,,,,Dihydralazine,C$_{8}$H$_{10}$N$_{6}$
,,,,,Halofuginone,C$_{16}$H$_{17}$BrClN$_{3}$O$_{3}$
,,133,,500.13,Perfluorooctanesulfonic acid,C$_{8}$HF$_{17}$O$_{3}$S
,,,,,Cyproterone acetate,
,,,,,Inaperisone,C$_{16}$H$_{23}$NO
,,,,,Bromazine,C$_{17}$H$_{20}$BrNO
,,,,,Isoetarine,C$_{13}$H$_{21}$NO$_{3}$
,,,,143.546,Germanium dichloride,GeCl$_{2}$
-50,,250-257,,,Diisodecyl phthalate,C$_{28}$H$_{46}$O$_{4}$
,,,,,Acetophenazine,C$_{23}$H$_{29}$N$_{3}$O$_{2}$S
,,,,622.83,Bafilomycin,C$_{35}$H$_{58}$O$_{9}$
,,,,,Dimethylheptylpyran,C$_{25}$H$_{38}$O$_{2}$
,,,,292.37,Octyl glucoside,C$_{14}$H$_{28}$O$_{6}$
-28,1.03,243,,104.15,Aminoethylethanolamine,C$_{4}$H$_{12}$N$_{2}$O
,,,,,Cathine,C$_{9}$H$_{13}$NO
,,543.6,,344.44,Formebolone,C$_{21}$H$_{28}$O$_{4}$
210,,,poor,,Iodosobenzene,C$_{6}$H$_{5}$IO
,,,,,Lopinavir,C$_{37}$H$_{48}$N$_{4}$O$_{5}$
,,,,,Tametraline,C$_{17}$H$_{19}$N
,,,,,Lithium (medication),
,,,,,Cannabidiol,C$_{21}$H$_{30}$O$_{2}$
,,,,,Profadol,C$_{14}$H$_{21}$NO
,,,,,Fenmetramide,C$_{11}$H$_{13}$NO$_{2}$
,,,,270.23,Thunberginol A,C$_{15}$H$_{10}$O$_{5}$
18.5,,33.7,,,Rhenium hexafluoride,ReF$_{6}$
,,,,448.38,Orientin,C$_{21}$H$_{20}$O$_{11}$
,,,insoluble,,Fenobucarb,C$_{12}$H$_{17}$NO$_{2}$
894,3.79,,,,Chromium(II) fluoride,CrF$_{2}$
,,,,,Ceftezole,C$_{13}$H$_{12}$N$_{8}$O$_{4}$S$_{3}$
,,,,,Leucine,C$_{6}$H$_{13}$NO$_{2}$
,,,,,Candocuronium iodide,
,,,,,Chunganenol,C$_{85}$H$_{64}$O$_{18}$
,,,,,Bryoamaride,C$_{36}$H$_{54}$O$_{12}$
,,,,,Gantacurium chloride,
59-60,,,,,Oleoylethanolamide,C$_{20}$H$_{39}$NO$_{2}$
,,,,,Sulfadiazine,C$_{10}$H$_{10}$N$_{4}$O$_{2}$S
,,,,,Urodilatin,C$_{145}$H$_{234}$N$_{52}$O$_{44}$S$_{3}$
,,,,,Ustekinumab,C$_{6482}$H$_{10004}$N$_{1712}$O$_{2016}$S$_{46}$
,,,,,Org 21465,
,,,,,Gevotroline,C$_{19}$H$_{20}$FN$_{3}$
611,,,,480.4,Antimony triselenide,Sb$_{2}$Se$_{3}$
,,,,30000-40000,Ethyl methyl cellulose,"[C$_{6}$H$_{7}$O$_{2}$(OH)$_{x}$(OCH$_{3}$)$_{y}$(OC$_{2}$H$_{5}$)$_{z}$]$_{n}$,z0.57-0.8,y0.2-0.4,x3-(x+y)"
,,,,674.5,Adenosine thiamine diphosphate,C$_{22}$H$_{28}$N$_{9}$O$_{10}$P$_{2}$S$^{-}$
,,,,,Zilpaterol,C$_{14}$H$_{19}$N$_{3}$O$_{2}$
712,5.614,,insoluble,191.483,Gallium antimonide,GaSb
,,,,,Lithium orotate,
,,,,,Fenoldopam,C$_{16}$H$_{16}$ClNO$_{3}$
,,,,258.27,Lunularic acid,C$_{15}$H$_{14}$O$_{4}$
,,,,298.376,Auraptene,C$_{19}$H$_{22}$O$_{3}$
48-51,,244-245,,,Methyl anisate,C$_{9}$H$_{10}$O$_{3}$
,,,,,Naringenin,C$_{15}$H$_{12}$O$_{5}$
,,,,,Cyproheptadine,C$_{21}$H$_{21}$N
,,,,,Saredutant,C$_{31}$H$_{35}$Cl$_{2}$N$_{3}$O$_{2}$
,,,,,Ethosuximide,C$_{7}$H$_{11}$NO$_{2}$
,,,,,Dihydroxymethylidene,CH$_{2}$O$_{2}$
116,,,,235.064,Dichlorprop,C$_{9}$H$_{8}$Cl$_{2}$O$_{3}$
,,,,,Prasugrel,C$_{20}$H$_{20}$FNO$_{3}$S
65-66,,270,high,,Pyridine-N-oxide,C$_{5}$H$_{5}$NO
,,,,256.34,Chanoclavine,C$_{16}$H$_{20}$N$_{2}$O
,,,,,Methiodal,CH$_{2}$INaO$_{3}$S
284-285,,,,208.22,Bis(benzene)chromium,C$_{12}$H$_{12}$Cr
,,114,,,Isothiazole,C$_{3}$H$_{3}$NS
,,,,,Bakelite,(C$_{6}$H$_{6}$O.CH$_{2}$O)$_{n}$
-61.1,,89,Insoluble,,Propargyl bromide,MgC$_{2}$O$_{4}$MgC$_{2}$O$_{4}$.2H$_{2}$O(Dihydrate)
,,,,,Indometacin farnesil,
,,,,206.24,Phenylethylmalonamide,C$_{11}$H$_{14}$N$_{2}$O$_{2}$
205,,,,,Crystal violet,C$_{25}$N$_{3}$H$_{30}$Cl
115,1.882,240,monohydrate:   7.2,181.63,Copper(II) acetate,Cu(CH$_{3}$COO)$_{2}$
427,4.13,,negligible,,Cobalt(II) carbonate,CoCO$_{3}$
-78,0.8825,126.1,0.68,,Butyl acetate,C$_{6}$H$_{12}$O$_{2}$
,,,,,Triiodide,I$^{3-}$
,,,,,Chlorin,C$_{20}$H$_{16}$N$_{4}$
2072,3.95-4.1,2977,insoluble,,Aluminium oxide,Al$_{2}$O$_{3}$
,,,,,Sabarubicin,C$_{32}$H$_{37}$NO$_{13}$
,,,,,Fenoxazoline,C$_{13}$H$_{18}$N$_{2}$O
139-141,1.107,,,,Dipicolylamine,C$_{12}$H$_{13}$N$_{3}$
,,,,,Pradofloxacin,C$_{21}$H$_{21}$FN$_{4}$O$_{3}$
,,,,,Hyperforin,C$_{35}$H$_{52}$O$_{4}$
,,,,,Dorzolamide,C$_{10}$H$_{16}$N$_{2}$O$_{4}$S$_{3}$
,,,,430.62,Sorbitan monostearate,C$_{24}$H$_{46}$O$_{6}$
-45,,180,0.002,,Tributyltin oxide,C$_{24}$H$_{54}$OSn$_{2}$
,,,,,Vedolizumab,C$_{6528}$H$_{10072}$N$_{1732}$O$_{2042}$S$_{42}$
,,,,448.59,Sodium myreth sulfate,CH$_{3}$(CH$_{2}$)$_{12}$CH$_{2}$(OCH$_{2}$CH$_{2}$)$_{n}$OSO$_{3}$Na
205,,,,,N-Desalkylflurazepam,C$_{15}$H$_{10}$ClFN$_{2}$O
,,,,,ADB-FUBINACA,C$_{21}$H$_{23}$FN$_{4}$O$_{2}$
,,,,272.25,Butein,C$_{15}$H$_{12}$O$_{5}$
,,,,368.1736,Mitraphylline,C$_{21}$H$_{24}$N$_{2}$O$_{4}$
33.4,1.231,,1.82,,Ethiofencarb,C$_{11}$H$_{15}$NO$_{2}$S
,,,,,Lornoxicam,C$_{13}$H$_{10}$ClN$_{3}$O$_{4}$S$_{2}$
,1.42,,,,Gallium acetylacetonate,GaC$_{15}$H$_{21}$O$_{6}$
,,,,,TCB-2,C$_{11}$H$_{14}$BrNO$_{2}$
,,,,,Ramelteon,C$_{16}$H$_{21}$NO$_{2}$
,,,Insoluble,,NS-398,C$_{13}$H$_{18}$N$_{2}$O$_{5}$S
,,,,,Vorinostat,C$_{14}$H$_{20}$N$_{2}$O$_{3}$
,,,,234.25,Vidalenolone,C$_{13}$H$_{14}$O$_{4}$
38,1.24,140,67,172.2,P-Toluenesulfonic acid,CH$_{3}$C$_{6}$H$_{4}$SO$_{3}$H
108.5,0.99,260,1,,DDT,C$_{14}$H$_{9}$Cl$_{5}$
>300,,,insoluble in water,,Tris(8-hydroxyquinolinato)aluminium,C$_{27}$H$_{18}$AlN$_{3}$O$_{3}$
,,,,,SB-742457,C$_{19}$H$_{19}$N$_{3}$O$_{2}$S
300,,,0.0001,78,Aluminium hydroxide,Al(OH)$_{3}$
,,,,,S33005,C$_{18}$H$_{27}$NO$_{2}$
,,,,428.39,Durantin A,C$_{22}$H$_{20}$O$_{9}$
,,,,,Nitrendipine,C$_{18}$H$_{20}$N$_{2}$O$_{6}$
,,,630,,Tetrabromoethane,C$_{2}$H$_{2}$Br$_{4}$
,,,,,Cephaeline,C$_{28}$H$_{38}$N$_{2}$O$_{4}$
,,,,,Ranimustine,C$_{10}$H$_{18}$ClN$_{3}$O$_{7}$
121,1.45,329,,,Erythritol,C$_{4}$H$_{10}$O$_{4}$
,,,,,Cyprodenate,C$_{13}$H$_{25}$NO$_{2}$
,,,,230.241,Asulam,C$_{8}$H$_{10}$N$_{2}$O$_{4}$S
103,,,,,Altrose,C$_{6}$H$_{12}$O$_{6}$
,,,,220.354,N N'-Di-2-butyl-1 4-phenylenediamine,C$_{14}$H$_{24}$N$_{2}$
,,,,,PRL-8-53,C$_{18}$H$_{21}$NO$_{2}$
,,,,,Deoxycytidine triphosphate,C$_{9}$H$_{16}$N$_{3}$O$_{13}$P$_{3}$
,,,,,Procarbazine,C$_{12}$H$_{19}$N$_{3}$O
,,,,,SR-144 528,
-24,1.028,202,,,N-Methyl-2-pyrrolidone,C$_{5}$H$_{9}$NO
,,,,,Trichlormethiazide,C$_{8}$H$_{8}$Cl$_{3}$N$_{3}$O$_{4}$S$_{2}$
77-78,,,,224.25,Dibenzoylmethane,C$_{15}$H$_{12}$O$_{2}$
,,,,,Dehydroacetic acid,C$_{8}$H$_{8}$O$_{4}$
,,,,,Dimethyltubocurarinium chloride,
,,,,,Polyvinyl chloride acetate,(C$_{2}$H$_{3}$Cl)$_{n}$(C$_{4}$H$_{6}$O$_{2}$)$_{m}$
,,,,,Org 25935,
,,,,,Tomatine,C$_{50}$H$_{83}$NO$_{21}$
,,,,770.68,Xanthorhamnin,C$_{34}$H$_{42}$O$_{20}$
,,,,,Aceclofenac,C$_{16}$H$_{13}$Cl$_{2}$NO$_{4}$
80,,338.8,,178.18,Coniferyl aldehyde,C$_{10}$H$_{10}$O$_{3}$
,,,,,Bromperidol,C$_{21}$H$_{23}$BrFNO$_{2}$
,,,,,S-15535,C$_{21}$H$_{24}$N$_{2}$O$_{2}$
,,,,,Pancratistatin,C$_{14}$H$_{15}$NO$_{8}$
94-96,,,,,N-Methylmaleimide,C$_{5}$H$_{5}$NO$_{2}$
23.8,2.135,173.1,reacts,,Phosphorus trioxide,P$_{4}$O$_{6}$
,,,,,Veltuzumab,C$_{6458}$H$_{9918}$N$_{1706}$O$_{2026}$S$_{46}$
,,,,,Sulfametoxydiazine,C$_{11}$H$_{12}$N$_{4}$O$_{3}$S
,1.473,,,,Chlorthiamide,C$_{7}$H$_{5}$Cl$_{2}$NS
,,,,,Eritoran,C$_{66}$H$_{126}$N$_{2}$O$_{19}$P$_{2}$
,,,,,Etacrynic acid,
,,,,,Tasosartan,C$_{23}$H$_{21}$N$_{7}$O
,,,,,Cefazolin,C$_{14}$H$_{14}$N$_{8}$O$_{4}$S$_{3}$
,,,,,Para-Chlorophenylpiperazine,C$_{10}$H$_{13}$ClN$_{2}$
148,,,Insoluble,,Dipyrocetyl,C$_{11}$H$_{10}$O$_{6}$
,,,,,Nitrate,NO$^{-}_{3}$
,,,Miscible,,N-Butylamine,C$_{4}$H$_{11}$N
,,,59,,Sodium gluconate,C$_{6}$H$_{11}$NaO$_{7}$
,,,,,Betahydroxythiofentanyl,C$_{20}$H$_{26}$N$_{2}$O$_{2}$S
,,,very low,,Tripropylene,C$_{9}$H$_{18}$
-15,0.923,152,,,Methylethyl ketone oxime,C$_{4}$H$_{9}$NO
75,1.49,,,76.05,Glycolic acid,C$_{2}$H$_{4}$O$_{3}$
,,,,388.36,Combretol,C$_{20}$H$_{20}$O$_{8}$
,,,,225.284,Metaescaline,C$_{12}$H$_{19}$NO$_{3}$
,,302,,,Isobornyl cyclohexanol,C$_{16}$H$_{28}$O
,,,,,CB-13,C$_{26}$H$_{24}$O$_{2}$
,,,,,Sulfacytine,C$_{12}$H$_{14}$N$_{4}$O$_{3}$S
,,113-115,,,Tris(tert-butoxy)silanethiol,C$_{12}$H$_{28}$O$_{3}$SSi
,,,,,Sulfathiazole,C$_{9}$H$_{9}$N$_{3}$O$_{2}$S$_{2}$
218,,,62,,Sodium ascorbate,C$_{6}$H$_{7}$NaO$_{6}$
,,,,,Sinapine,C$_{16}$H$_{24}$NO$_{5}$
,,,,,Fusafungine,C$_{29}$H$_{51}$N$_{2}$O$_{8}$
,,,,,Kedarcidin,C$_{53}$H$_{60}$ClN$_{3}$O$_{16}$
,8.3,,insoluble,279.55,Mercury selenide,HgSe
141,,,30-50,,Emamectin,C$_{49}$H$_{75}$NO$_{13}$
,,,,,Sodium tetradecyl sulfate,
,,,,,Amoxicillin,C$_{16}$H$_{19}$N$_{3}$O$_{5}$S
,,,100,,PPADS,C$_{14}$H$_{14}$N$_{3}$O$_{12}$PS$_{2}$
,,,,489.6,Migrastatin,C$_{27}$H$_{39}$NO$_{7}$
,,,Miscible,,Ethyl iodide,C$_{2}$H$_{5}$I
,,,,612.631,Glutathione disulfide,C$_{20}$H$_{32}$N$_{6}$O$_{12}$S$_{2}$
,,,,345.39,Tretoquinol,C$_{19}$H$_{23}$NO$_{5}$
637,4.43,,54.7,278.1139,Magnesium iodide,MgI$_{2}$(anhydrous)
,,,,,Eglumegad,C$_{8}$H$_{11}$NO$_{4}$
-35.8,,90,2.57,,Methacrylonitrile,C$_{4}$H$_{5}$N
,,,,,Allylestrenol,C$_{21}$H$_{32}$O
decomp ~ 155,,,,260.28,Ammonium tetrathiomolybdate,H$_{8}$N$_{2}$MoS$_{4}$
,,,,,Alazocine,C$_{17}$H$_{23}$NO
,,,,,ODE-CDV,C$_{28}$H$_{54}$N$_{3}$O$_{7}$P
,,,,,Adefovir,C$_{8}$H$_{12}$N$_{5}$O$_{4}$P
,,,,,Brexpiprazole,C$_{25}$H$_{27}$N$_{3}$O$_{2}$S
,,,,,Danofloxacin,C$_{19}$H$_{20}$FN$_{3}$O$_{3}$
,4.64,,,,Potassium niobate,KNbO$_{3}$
decomposes around 115,,,Insoluble,,Tetrakis(triphenylphosphine)palladium(0),C$_{72}$H$_{60}$P$_{4}$Pd
203-207,,,,1037.49,EuFOD,C$_{30}$H$_{30}$EuF$_{21}$O$_{6}$
,,,,245.918,Pentafluoroethyl iodide,C$_{2}$F$_{5}$I
-107.3,1.326,12.6,decomposes,117.17,Boron trichloride,BCl$_{3}$
,,,,,Xaliproden,C$_{24}$H$_{22}$F$_{3}$N
,,,,,Michellamine,C$_{46}$H$_{48}$N$_{2}$O$_{8}$
,,,,,Pyrrolnitrin,C$_{10}$H$_{6}$Cl$_{2}$N$_{2}$O$_{2}$
,,,,,Belimumab,C$_{6714}$H$_{10428}$O$_{2102}$S$_{52}$
,,,,,Tolimidone,C$_{11}$H$_{10}$N$_{2}$O$_{2}$
,,,,1558.56,Minigastrin,C$_{70}$H$_{91}$N$_{15}$O$_{26}$
,,,,,Boldenone,C$_{19}$H$_{26}$O$_{2}$
350,3.27,370,3.1,167,Potassium bromate,KBrO$_{3}$
,,,,,Leuprorelin,C$_{59}$H$_{84}$N$_{16}$O$_{12}$
,,,,,Dolutegravir,C$_{20}$H$_{19}$F$_{2}$N$_{3}$O$_{5}$
,,,,,Morphine methylbromide,
-57,1.65,128,insol.,197.82,Diphosgene,C$_{2}$Cl$_{4}$O$_{2}$
,,,,398.66,Episterol,C$_{28}$H$_{46}$O
,,,,,Sulfamoxole,C$_{11}$H$_{13}$N$_{3}$O$_{3}$S
,,,,,Catechin-5-O-glucoside,C$_{21}$H$_{24}$O
259.5,,600.4,,,Dinonylnaphthylsulfonic acid,C$_{28}$H$_{44}$O$_{3}$S
,,,,,SKF-97 541,
,,,,,JWH-057,C$_{25}$H$_{38}$O
,,,,,Ethallobarbital,C$_{9}$H$_{12}$N$_{2}$O$_{3}$
,,,,,Trimethylsilyldiazomethane,C$_{4}$H$_{10}$N$_{2}$Si
,,,,,Vancomycin,C$_{66}$H$_{75}$Cl$_{2}$N$_{9}$O$_{24}$
,,,,,Gallamine triethiodide,
,,,,901,Papulacandin B,C$_{47}$H$_{64}$O$_{17}$
,,,,,Cilansetron,C$_{20}$H$_{21}$N$_{3}$O
,,,,,Efungumab,C$_{6330}$H$_{9748}$N$_{1672}$O$_{1668}$S$_{48}$
34-38,1.092,261-262,Insoluble,,Methyl cinnamate,C$_{10}$H$_{10}$O$_{2}$
307,,,,,Tamarixetin,C$_{16}$H$_{12}$O$_{7}$
,,,,,Methoxsalen,C$_{12}$H$_{8}$O$_{4}$
,,,,251.36,Nupharamine,C$_{15}$H$_{25}$NO$_{2}$
,,,,,Org 37 684,
,,,,,Sisomicin,C$_{19}$H$_{37}$N$_{5}$O$_{7}$
2408,7.8,,Negligible,372.998,Dysprosium(III) oxide,Dy$_{2}$O$_{3}$
,,,,,Crofelemer,chemical_formula(C$_{15}$O$_{6@comma@7}$H$_{12}$)$_{n}$
300,,,<0.1,,Trypan blue,C$_{34}$H$_{28}$N$_{6}$O$_{14}$S$_{4}$
55-57,1.49,120,,,Triclosan,C$_{12}$H$_{7}$Cl$_{3}$O$_{2}$
,,,,211.26,Isomescaline,C$_{11}$H$_{17}$NO$_{3}$
,,,,,Prazepam,C$_{19}$H$_{17}$ClN$_{2}$O
,,,,,Matrine,C$_{15}$H$_{24}$N$_{2}$O
,,,,,D-161,C$_{25}$H$_{27}$NO$_{2}$
,,,,,Bezitramide,C$_{31}$H$_{32}$N$_{4}$O$_{2}$
,,,,920.91,Amurensin K,C$_{56}$H$_{40}$O$_{13}$
66,,154-155,insoluble,,N-Vinylcarbazole,C$_{14}$H$_{11}$N
95-99,,167,Slightly soluble,,Chlorobutanol,C$_{4}$H$_{7}$Cl$_{3}$O
,,,Insoluble,330.8,Lithopone,BaSO$_{4}$ZnS
,,,0.005% (20$^{\circ}$C),,Phorate,C$_{7}$H$_{17}$O$_{2}$PS$_{3}$
,,,,,Umirolimus,C$_{55}$H$_{87}$NO$_{14}$
,,,,,Cariprazine,C$_{21}$H$_{32}$Cl$_{2}$N$_{4}$O
,,,,,Elcatonin,C$_{148}$H$_{244}$N$_{42}$O$_{47}$
,,,,,LY-404 187,
,,,,,Tiospirone,C$_{24}$H$_{32}$N$_{4}$O$_{2}$S
53,1.2,302,0.03%,169.23,Diphenylamine,C$_{12}$H$_{11}$N
,,,,,Cryptopine,C$_{21}$H$_{23}$NO$_{5}$
,,,,,Bephenium hydroxynaphthoate,
250-251,,,,364.44,Phorbol,C$_{20}$H$_{28}$O$_{6}$
,,,,,Pipecolic acid,C$_{6}$H$_{11}$NO$_{2}$
,,,,,P7C3,C$_{21}$H$_{18}$Br$_{2}$N$_{2}$O
,,,"Insoluble in water, Very soluble in acetonitrile and methanol",,Spiramycin,C$_{43}$H$_{74}$N$_{2}$O$_{14}$
,,,,,Sulfene,CH$_{2}$SO$_{2}$
-185,,-112,Reacts slowly,,Silane,H$_{4}$Si
10,,223,,187.036,Bromoanisole,C$_{7}$H$_{7}$OBr
,,,,,JWH-161,C$_{27}$H$_{33}$NO$_{2}$
168-169,,,,,Ipodate sodium,
,,,,160.04,Sodium fumarate,C$_{4}$H$_{2}$Na$_{2}$O$_{4}$
1900,5.18,,negligible,165.8646,Cobalt(III) oxide,Co$_{2}$O$_{3}$
,,,,,Tetraxenonogold(II),AuXe$_{4}$
53,,,,,Azinphos-ethyl,C$_{12}$H$_{16}$N$_{3}$O$_{3}$PS$_{2}$
,,,,,Eldecalcitol,C$_{30}$H$_{50}$O$_{5}$
,,,"Miscible with water, soluble in alcohols",,Aminomethyl propanol,C$_{4}$H$_{11}$NO
,,,,,Iobenzamic acid,
159-162,,,,,Pyridoxine,C$_{8}$H$_{11}$NO$_{3}$
273,,279,,,Bromophenol blue,C$_{19}$H$_{10}$Br$_{4}$O$_{5}$S
,,,,97.16,Thiopyrylium,C$_{5}$H$_{5}$S$^{+}$
,,,,632.796,Einsteinium(III) iodide,EsI$_{3}$
,,,,634.43,Punicacortein B,C$_{27}$H$_{22}$O$_{18}$
,,,,,Pseudoephedrine,C$_{10}$H$_{15}$NO
43-45,,117,2.5,229.26,Dimethoate,C$_{5}$H$_{12}$NO$_{3}$PS$_{2}$
,,,,75.53,Calcium(I) chloride,CaCl
,,,,,RTI-83,C$_{18}$H$_{25}$NO$_{2}$
,,,74.8,,Ammonium hexafluorophosphate,F$_{6}$H$_{4}$NP
,,,,,Epiboxidine,C$_{10}$H$_{14}$N$_{2}$O
,,,,,Radezolid,C$_{22}$H$_{23}$FN$_{6}$O$_{3}$
,,,,956.67,Chebulinic acid,C$_{41}$H$_{32}$O$_{27}$
281,1.34,,Soluble,,Methionine,C$_{5}$H$_{11}$NO$_{2}$S
,,,,,Anthrapurpurin,C$_{14}$H$_{8}$O$_{5}$
,,,,,O-2694,C$_{38}$H$_{60}$N$_{2}$O$_{5}$
,,,,,GSK-789 472,
-115.8,,98.2,Slightly soluble (0.06% at 20$^{\circ}$C),,Butanethiol,C$_{4}$H$_{10}$S
,,,,,Amiflamine,C$_{12}$H$_{20}$N$_{2}$
,,,,,Nisoxetine,C$_{17}$H$_{21}$NO$_{2}$
,,,,292.33,Coumatetralyl,C$_{19}$H$_{16}$O$_{3}$
176,,,Insoluble,,Taxodone,C$_{20}$H$_{28}$O$_{3}$
188-189,,,,,Potassium trispyrazolylborate,C$_{9}$H$_{10}$BKN$_{6}$
,1.5,,insoluble (see starch gelatinization),,Starch,(C$_{6}$H$_{10}$O$_{5}$)N
,,,,,Dirithromycin,C$_{42}$H$_{78}$N$_{2}$O$_{14}$
,,,,,Lithium sulfite,Li$_{2}$SO$_{3}$
,,150,,,Plumbocene,C$_{10}$H$_{10}$Pb
345-350,,,,,Apigenin,C$_{15}$H$_{10}$O$_{5}$
,,,miscible,,Acetone,C$_{3}$H$_{6}$O
,,,,,Semapimod,C$_{34}$H$_{56}$Cl$_{4}$N$_{18}$O$_{2}$
,,,,,Citiolone,C$_{6}$H$_{9}$NO$_{2}$S
,,,,,Ohmefentanyl,C$_{23}$H$_{30}$N$_{2}$O$_{2}$
,,,,,Niludipine,C$_{25}$H$_{34}$N$_{2}$O$_{8}$
,,,,,Aurone,C$_{15}$H$_{10}$O$_{2}$
-82.3,,64.6,,77.04,Methyl nitrate,CH$_{3}$NO$_{3}$
245,,260,142,,Barbituric acid,C$_{4}$H$_{4}$N$_{2}$O$_{3}$
-111.3,,6.8,reacts,,Carbon suboxide,C$_{3}$O$_{2}$
,,,,,Bethanechol,C$_{7}$H$_{17}$N$_{2}$O$_{2}$
,,,,,Lafutidine,C$_{22}$H$_{29}$N$_{3}$O$_{4}$S
176,,,,,Chloralose,C$_{8}$H$_{11}$Cl$_{3}$O$_{6}$
98.5,,390,,,Retene,C$_{18}$H$_{18}$
,,,,,Alanosine,C$_{3}$H$_{7}$N$_{3}$O$_{4}$
96-99,1.063,,,180.2,Propylparaben,C$_{10}$H$_{12}$O$_{3}$
,,,,,Flavokavain A,C$_{18}$H$_{18}$O$_{5}$
,,,,,RS-102221,C$_{27}$H$_{33}$F$_{3}$N$_{4}$O$_{7}$S
,,,,,Quazepam,C$_{17}$H$_{11}$ClF$_{4}$N$_{2}$S
,,,,353.845,Nile blue,C$_{20}$H$_{20}$ClN$_{3}$O
22-24,,,,,Dibutyltin dilaurate,C$_{32}$H$_{64}$O$_{4}$Sn
40,,314,Reacts,250.25,Methylene diphenyl diisocyanate,C$_{15}$H$_{10}$N$_{2}$O$_{2}$
,,,,,Cerberin,C$_{32}$H$_{48}$O$_{9}$
,,,,,Tilidine,C$_{17}$H$_{23}$NO$_{2}$
,,,,,Cilostazol,C$_{20}$H$_{27}$N$_{5}$O$_{2}$
,,,Insoluble,,Poly(p-phenylene vinylene),(C$_{8}$H$_{6}$)$_{n}$
,1.667,,Soluble,88.0654,Oxamide,C$_{2}$H$_{4}$N$_{2}$O$_{2}$
,,,,,Ketazocine,C$_{18}$H$_{23}$NO$_{2}$
,,,,,Fumonisin B1,C$_{34}$H$_{59}$NO$_{15}$
,,,,,Alpha-Methyltryptamine,C$_{11}$H$_{14}$N$_{2}$
,,,,472.7,Maslinic acid,C$_{30}$H$_{48}$O$_{4}$
,,,,,Sulfaguanidine,C$_{7}$H$_{10}$N$_{4}$O$_{2}$S
254,1.53,,,,Triclocarban,C$_{13}$H$_{9}$Cl$_{3}$N$_{2}$O
,1.282,,,,Resminostat,C$_{16}$H$_{19}$N$_{3}$O$_{4}$S
,,,,,Oprelvekin,C$_{854}$H$_{1411}$N$_{253}$O$_{235}$S$_{2}$
58,,289,,134.17,Trimethylolpropane,C$_{6}$H$_{14}$O$_{3}$
,,,,,Levocetirizine,C$_{21}$H$_{25}$ClN$_{2}$O$_{3}$
,,,,,Indecainide,C$_{20}$H$_{24}$N$_{2}$O
,,,,,Ketocaine,C$_{18}$H$_{29}$NO$_{2}$
,,,,,Diclazepam,C$_{16}$H$_{12}$Cl$_{2}$N$_{2}$O
,,,,,Larotaxel,C$_{45}$H$_{53}$NO$_{14}$
,,,,,Ifetroban,C$_{25}$H$_{32}$N$_{2}$O$_{5}$
,,,,,Triflupromazine,C$_{18}$H$_{19}$F$_{3}$N$_{2}$S
,,,,,Milnacipran,C$_{15}$H$_{22}$N$_{2}$O
131-132,,,,,Morphan,C$_{8}$H$_{15}$N
,1.02,418,,283.43,Ammonium lauryl sulfate,C$_{12}$H$_{29}$NO$_{4}$S
,,,,,Bromoxynil,C$_{7}$H$_{3}$Br$_{2}$NO
256,3.05,170,trihydrate:   381,187.5558,Copper(II) nitrate,Cu(NO$_{3}$)$_{2}$
,,,,358.34,Retusin (flavonol),C$_{19}$H$_{18}$O$_{7}$
,,,,,Fenticlor,C$_{12}$H$_{8}$Cl$_{2}$O$_{2}$S
,,,,255.24,Apigeninidin,C$_{15}$H$_{11}$O$_{4}$+
,,,,,Azepindole,C$_{12}$H$_{14}$N$_{2}$
,,,,,Su$\gamma$dex,C$_{72}$H$_{104}$Na$_{8}$O$_{48}$S$_{8}$
,,,,,Meconic acid,C$_{7}$H$_{4}$O$_{7}$
,,,,,Succinyl-CoA,C$_{25}$H$_{40}$N$_{7}$O$_{19}$P$_{3}$S
,,,,,Microcystin-LR,C$_{49}$H$_{74}$N$_{10}$O$_{12}$
,,,,,Indoxyl,C$_{8}$H$_{7}$NO
108-110,,,,,Obeticholic acid,
,,,,952.61,Granatin B,C$_{41}$H$_{28}$O$_{27}$
,,,,,Noopept,C$_{17}$H$_{22}$N$_{2}$O$_{4}$
,,,Reacts with water,,Phenylisocyanate,C$_{7}$H$_{5}$NO
170.9,1.435,300,2.52,,Boric acid,H$_{3}$BO$_{3}$
,,,,,AM-1248,C$_{26}$H$_{34}$N$_{2}$O
154-158,,360,,278.29,Triphenylphosphine oxide,C$_{18}$H$_{15}$OP
,,,,686.7,Secoisolariciresinol diglucoside,C$_{32}$H$_{46}$O$_{16}$
,,,,,Zomepirac,C$_{15}$H$_{14}$ClNO$_{3}$
,,,,674.7,Argadin,C$_{29}$H$_{42}$N$_{10}$O$_{9}$
,,,,,Streptozotocin,C$_{8}$H$_{15}$N$_{3}$O$_{7}$
,,,,344.31,Ayanin,C$_{18}$H$_{16}$O$_{7}$
,,,,60.08,Silica gel,SiO$_{2}$
,,,,,Ocinaplon,C$_{17}$H$_{11}$N$_{5}$O
49.25,,75.6,reacts,,Xenon hexafluoride,XeF$_{6}$
,,,,,Chlordiazepoxide,C$_{16}$H$_{14}$ClN$_{3}$O
,,,,,CX-516,C$_{14}$H$_{15}$N$_{3}$O
600,4.84,,negligible,165.39,Nickel(III) oxide,Ni$_{2}$O$_{3}$
,,24,,,Formic anhydride,C$_{2}$H$_{2}$O$_{3}$
,,,,86.05,Deltic acid,C$_{3}$H$_{2}$O$_{3}$
,,,,,Calanolide A,
285,1.45,,decomposes,26.3209,Magnesium hydride,MgH$_{2}$
,,,,,Disilene,Si$_{2}$H$_{4}$
53.5,,,,301.34,Fenoxycarb,C$_{17}$H$_{19}$NO$_{4}$
,,,,314.24,Norbergenin,C$_{13}$H$_{16}$O$_{9}$
86.5,1.58,312,0.01% (20$^{\circ}$C),,Dinitro-ortho-cresol,C$_{7}$H$_{6}$N$_{2}$O$_{5}$
,,,,,Phenacemide,C$_{9}$H$_{10}$N$_{2}$O$_{2}$
302-307,1.45,,8,191.187,Carbendazim,C$_{9}$H$_{9}$N$_{3}$O$_{2}$
,,,,,Oxycinchophen,C$_{16}$H$_{11}$NO$_{3}$
-2,1.444,204,,264.75,Hexachloroacetone,C$_{3}$Cl$_{6}$O
185-187,,,,,N-Fluoropyridinium triflate,C$_{6}$H$_{5}$F$_{4}$NO$_{3}$S
,,,very soluble,212.076,Pentafluorobenzoic acid,C$_{7}$HF$_{5}$O$_{2}$
,,,Insoluble,,Citranaxanthin,C$_{33}$H$_{44}$O
80,,213,very soluble in water,,Propanamide,C$_{3}$H$_{7}$NO
,,,,,Butylscopolamine,C21H30NO4charge+
,,,,,Ketazolam,C$_{20}$H$_{17}$ClN$_{2}$O$_{3}$
,,,,,Dextropropoxyphene,C$_{22}$H$_{29}$NO$_{2}$
,,,slightly soluble,375.747,Ferric oxalate,C$_{6}$Fe$_{2}$O$_{12}$
135,1.4,,,394.32,DPPH,C$_{18}$H$_{12}$N$_{5}$O$_{6}$
-122,,,Reacts,,Dichlorosilane,SiH$_{2}$Cl$_{2}$
,,,,268.35,Dianin's compound,C$_{18}$H$_{20}$O$_{2}$
,,,,,Bamethan,C$_{12}$H$_{19}$NO$_{2}$
160,,,,,Gamma-Carotene,C$_{40}$H$_{56}$
292,4.379,376,385,178.76,Antimony trifluoride,SbF$_{3}$
,,,,,Verteporfin,C$_{41}$H$_{42}$N$_{4}$O$_{8}$
,,,Insoluble,,Petroselinic acid,C$_{18}$H$_{34}$O$_{2}$