Property Melting Point,Property Density,Property Boiling Point,Property Solubility,Property Molar Mass,Name,formula
,,,,585.538,Fuchsine acid,C$_{20}$H$_{17}$N$_{3}$Na$_{2}$O$_{9}$S$_{3}$
-89.8,,117.7,73,,N-Butanol,C$_{4}$H$_{10}$O
,,,,,Trional,C$_{8}$H$_{18}$O$_{4}$S$_{2}$
61.3,0.853,227,insoluble,270.45,Heptadecanoic acid,C$_{17}$H$_{34}$O$_{2}$
,,,,460.6,Sophoradin,C$_{30}$H$_{36}$O$_{4}$
165,7.9,,,276.87,Gold(I) bromide,AuBr
,,,,,Penicillamine,C$_{5}$H$_{11}$NO$_{2}$S
250,,,,149.888,Silver azide,AgN$_{3}$
157-160,,149.5,,111.18,Quinuclidine,C$_{7}$H$_{13}$N
600,4.5,,Insoluble,,Tin(IV) sulfide,SnS$_{2}$
121,,,,,Momordicin-28,C$_{31}$H$_{50}$O$_{3}$
,,,,,Propylhexedrine,C$_{10}$H$_{21}$N
,,,,,Femoxetine,C$_{20}$H$_{25}$NO$_{2}$
,,,,,Aluminium acetoacetate,
,,,,,Alphamethylthiofentanyl,C$_{21}$H$_{28}$N$_{2}$OS
,,,Soluble to 50,,Kifunensine,C$_{8}$H$_{12}$N$_{2}$O$_{6}$
,,,,,LY-156 735,
,,,,,Hydrastinine,C$_{11}$H$_{13}$NO$_{3}$
,,,,,Terizidone,C$_{14}$H$_{14}$N$_{4}$O$_{4}$
176,,,,333.19,Triphenylphosphine dichloride,C$_{18}$H$_{15}$Cl$_{2}$P
,,,,652.52,Dirhenium decacarbonyl,Re$_{2}$(CO)$_{10}$
,,,,,Cloforex,C$_{13}$H$_{18}$ClNO$_{2}$
1477,4.24,2460,0.039,125.62,Strontium fluoride,SrF$_{2}$
84.2,,,,368.63,Lignoceric acid,C$_{24}$H$_{48}$O$_{2}$
,,89-90,,,Oxazolidinedione,C$_{3}$H$_{3}$NO$_{3}$
988,2.534,,2.61,,Tetrasodium pyrophosphate,Na$_{4}$P$_{2}$O$_{7}$
,,,,,Crisnatol,C$_{23}$H$_{23}$NO$_{2}$
895,6.11,900,Insoluble,240.8,Cobalt(II III) oxide,Co$_{3}$O$_{4}$
,,,,,Demexiptiline,C$_{18}$H$_{18}$N$_{2}$O
,,,,,Succinylsulfathiazole,C$_{13}$H$_{13}$N$_{3}$O$_{5}$S$_{2}$
,,,,286.27,Poriol,C$_{16}$H$_{14}$O$_{5}$
,,,,,Morphine-N-oxide,C$_{17}$NH$_{19}$O$_{4}$
,,,,,Carbon tetraiodide,CI$_{4}$
,,,,571.667,Endomorphin-2,C$_{32}$H$_{37}$N$_{5}$O$_{5}$
,,,,849.636,Methylcrotonyl-CoA,C$_{26}$H$_{42}$N$_{7}$O$_{17}$P$_{3}$S
122,,,,,DBNPA,C$_{3}$H$_{2}$Br$_{2}$N$_{2}$O
,,,,,Phenbenzamine,C$_{17}$H$_{22}$N$_{2}$
169,,,,,Diethyltryptamine,C$_{14}$H$_{20}$N$_{2}$
>300,1.5,,69.87,,Potassium benzoate,C$_{7}$H$_{5}$KO$_{2}$
,,,,,CCG-4986,C$_{13}$H$_{11}$ClN$_{2}$O$_{5}$S$_{2}$
,,,,,FCE 28260,
4.49,,,,,Tritiated water,T$_{2}$Oor$^{3}$H$_{2}$O
,,,,,Alminoprofen,C$_{13}$H$_{17}$NO$_{2}$
,,,,316.26,Rhamnetin,C$_{16}$H$_{12}$O$_{7}$
,,,,,Nalfurafine,C$_{28}$H$_{32}$N$_{2}$O$_{5}$
,,,,,Chlorodiisopropylphosphine,C$_{6}$H$_{14}$ClP
,,,,,Arprinocid,C$_{12}$H$_{9}$ClFN$_{5}$
,,,,284.26,Glycitein,C$_{16}$H$_{12}$O$_{5}$
,,,,,Pentamine,C$_{13}$H$_{33}$N$_{3}$
,,,,,Asphodelin A,C$_{15}$H$_{10}$O$_{6}$
,,,,893.732,Octanoyl-CoA,C$_{29}$H$_{50}$N$_{7}$O$_{17}$P$_{3}$S
,,,,,Ibipinabant,C$_{24}$H$_{22}$Cl$_{2}$N$_{4}$O$_{2}$S
,,,,,Minaxolone,C$_{25}$H$_{43}$NO$_{3}$
,,,,,Pivhydrazine,C$_{12}$H$_{18}$N$_{2}$O
,,,,,Nimustine,C$_{9}$H$_{13}$ClN$_{6}$O$_{2}$
,,,,,Brookhart's acid,C$_{40}$H$_{33}$BF$_{24}$O$_{2}$
,,,,373.19,Hasubanonine,C$_{21}$H$_{27}$NO$_{5}$
,,,0.2% (25$^{\circ}$C),,Fensulfothion,C$_{11}$H$_{17}$O$_{4}$PS$_{2}$
211-212,,,,564.82,Canthaxanthin,C$_{40}$H$_{52}$O$_{2}$
260,,,insoluble in water,398.39,Ruthenium(III) acetylacetonate,(C$_{5}$H$_{7}$O$_{2}$)$_{3}$Ru
,,,,,Cyclononane,C$_{9}$H$_{18}$
,,,,180.09,Tetraazidomethane,CN$_{12}$
,,,,902.07,Macrocin,C$_{45}$H$_{75}$NO$_{17}$
,,,,,Conduritol,C$_{6}$H$_{10}$O$_{4}$
861,6.179,,insoluble,197.67,Tin selenide,SnSe
,,,,,Lodoxamide,C$_{11}$H$_{6}$ClN$_{3}$O$_{6}$
,,,,,CGS-20625,C$_{18}$H$_{19}$N$_{3}$O$_{2}$
63,,130-150,2.15,99.815,Sodium perborate,NaBO$_{3}$.NH$_{2}$O
204-207,,,,,Carbocisteine,C$_{5}$H$_{9}$NO$_{4}$S
,,,,,Acebutolol,C$_{18}$H$_{28}$N$_{2}$O$_{4}$
,,,,,DDAIP,C$_{17}$H$_{36}$ClNO$_{2}$
-5,1.007,129,miscible,,Morpholine,C$_{4}$H$_{9}$NO
,,,,,Oxabolone cipionate,
,,,,,Captodiame,C$_{21}$H$_{29}$NS$_{2}$
,,,,,Cerivastatin,C$_{26}$H$_{34}$FNO$_{5}$
,,,,,Phentermine,C$_{10}$H$_{15}$N
15-Dec,0.821,171,Slightly soluble,,Octanal,C$_{8}$H$_{16}$O
,,,,,Dienedione,C$_{18}$H$_{22}$O$_{2}$
,,,,,Allobarbital,C$_{10}$H$_{12}$N$_{2}$O$_{3}$
,,,Miscible in water,,Benzyltrimethylammonium hydroxide,C$_{10}$H$_{17}$NO
,,,,,PIM-35,C$_{10}$H$_{12}$N$_{2}$O
,,,,371.39,Lysidine (nucleoside),C$_{15}$H$_{25}$N$_{5}$O$_{6}$
248,,,,,Dipicolinic acid,C$_{7}$H$_{5}$NO$_{4}$
,,179-180,,,Ethyl iodoacetate,C$_{4}$H$_{7}$IO$_{2}$
-30,,195,low,124.2,Benzyl mercaptan,C$_{7}$H$_{8}$S
199-200,,,,,Medronic acid,CH$_{6}$O$_{6}$P$_{2}$
,1.47,,Insoluble,,Quinacridone,C$_{20}$H$_{12}$N$_{2}$O$_{2}$
,,,,,Rolicyclidine,C$_{16}$H$_{23}$N
,,,,,Atacicept,C$_{8}$H$_{12}$ClN$_{5}$
64-66,,,2.61,,Tebufenpyrad,C$_{18}$H$_{24}$ClN$_{3}$O
,,,,,Impentamine,C$_{8}$H$_{15}$N$_{3}$
,,,,,Teneligliptin,C$_{22}$H$_{30}$N$_{6}$OS
,,,,,Cytidine diphosphate,C$_{9}$H$_{15}$N$_{3}$O$_{11}$P$_{2}$
,,,,,Fenfluramine,C$_{12}$H$_{16}$F$_{3}$N
,,,,,Suproclone,C$_{22}$H$_{22}$ClN$_{5}$O$_{4}$S$_{2}$
165,,,,,Rimazolium,chemical_formulaC$_{13}$H$_{19}$N$_{2}$O$_{3}$; C$_{14}$H$_{22}$N$_{2}$O$_{7}$S(mesylate)
290,,,,,Rosoxacin,C$_{17}$H$_{14}$N$_{2}$O$_{3}$
,,498.5,,285.338,Chavicine,C$_{17}$H$_{19}$NO$_{3}$
,,,,,Sitaxentan,C$_{18}$H$_{15}$ClN$_{2}$O$_{6}$S$_{2}$
,,,,,DHSA,C$_{19}$H$_{24}$O$_{4}$
,,,,,Pyronaridine,C$_{29}$H$_{32}$ClN$_{5}$O$_{2}$
,,,,,Nimodipine,C$_{21}$H$_{26}$N$_{2}$O$_{7}$
,,,,,Simmondsin,C$_{16}$H$_{25}$NO$_{9}$
,,,,1097.33,Perimycin,C$_{59}$H$_{88}$N$_{2}$O$_{17}$
,,,,,Kuwanon G,C$_{40}$H$_{36}$O$_{11}$
,,,,,Pipofezine,C$_{16}$H$_{19}$N$_{5}$O
,,,,,Halofantrine,C$_{26}$H$_{30}$Cl$_{2}$F$_{3}$NO
,,,,,Cetiedil,C$_{20}$H$_{31}$NO$_{2}$S
,,,,,Oxilorphan,C$_{20}$H$_{27}$NO$_{2}$
-111.26,,-84.57,reacts violently with water,,Carbonyl fluoride,COF$_{2}$
66,,,,,Efalizumab,C$_{9}$H$_{13}$NO$_{2}$
,,,,479.6,Cytochalasin B,C$_{29}$H$_{37}$NO$_{5}$
,,,,,Doxanthrine,C$_{16}$H$_{15}$NO$_{3}$
,,,,,Fosmidomycin,C$_{4}$H$_{10}$NO$_{5}$P
,,,,,Sambubiose,C$_{11}$H$_{20}$O$_{10}$
,,,,,RH-34,C$_{18}$H$_{19}$N$_{3}$O$_{3}$
,,,,,Lumiflavin,C$_{13}$H$_{12}$N$_{4}$O$_{2}$
856,3.98,1820,,92.934855,Manganese(II) fluoride,MnF$_{2}$
,,,,,Epirubicin,C$_{27}$H$_{29}$NO
,,,,,Roxithromycin,C$_{41}$H$_{76}$N$_{2}$O$_{15}$
,,,,,Propranolol,C$_{16}$H$_{21}$NO$_{2}$
,,,,,Fluacizine,C$_{20}$H$_{21}$F$_{3}$N$_{2}$OS
,,,,,Prodilidine,C$_{15}$H$_{21}$NO$_{2}$
,,,,,Adenosine,C$_{10}$H$_{13}$N$_{5}$O$_{4}$
71,,,,,Ethylisopropyltryptamine,C$_{15}$H$_{22}$N$_{2}$
,,,,,Malaoxon,C$_{10}$H$_{19}$O$_{7}$PS
238-240,,,,,Lysergic acid,C$_{16}$H$_{16}$N$_{2}$O$_{2}$
,,,,,Thiobarbital,C$_{8}$H$_{12}$N$_{2}$O$_{2}$S
197-200,,,,,Salicin,C$_{13}$H$_{18}$O$_{7}$
1070-990,~5.7,,,,Copper indium gallium selenide,CuIn$_{x}$Ga$_{(1-x)}$Se$_{2}$
44-45,,,,278.43,Punicic acid,C$_{18}$H$_{30}$O$_{2}$
,,,,,Nifurquinazol,C$_{16}$H$_{16}$N$_{4}$O$_{5}$
3.81,,101.42,Reacts,,Semiheavy water,H$^{2}$HO(AlSOHDO)
,,,,,Broxaterol,C$_{9}$H$_{15}$BrO$_{2}$N$_{2}$
48,,,,278.43,Alpha-Eleostearic acid,C$_{18}$H$_{30}$O$_{2}$
175,2.098,339,14.7,,N-Bromosuccinimide,C$_{4}$H$_{4}$BrNO$_{2}$
,,,,,Thiamylal,C$_{12}$H$_{18}$N$_{2}$O$_{2}$S
,,,,,Tilomisole,C$_{17}$H$_{11}$ClN$_{2}$O$_{2}$S
,,,,,Cloroqualone,C$_{16}$H$_{12}$Cl$_{2}$N$_{2}$O
179-182,0.791,,,,Methyl red,C$_{15}$H$_{15}$N$_{3}$O$_{2}$
30-32,,,,294.38,Gingerol,C$_{17}$H$_{26}$O$_{4}$
,,,,,Isopregnanolone,C$_{21}$H$_{34}$O$_{2}$
,,,,,Glatiramer acetate,
87-88,1.304,447.2,,,Phthalimidopropiophenone,C$_{17}$H$_{13}$NO$_{3}$
,,,,,Pimecrolimus,C$_{43}$H$_{68}$ClNO
,,,,,Thiete,C$_{3}$H$_{4}$S
52,,177,good,75,Methyl carbamate,C$_{2}$H$_{5}$NO$_{2}$
,,,,,Setmelanotide,C$_{49}$H$_{68}$N$_{18}$O$_{9}$S$_{2}$
2300,3.67,,Insoluble,,Yttrium borides,YB$_{6}$
,,,,,Benzoctamine,C$_{18}$H$_{19}$N
,,,,,Tiamulin,C$_{28}$H$_{47}$NO$_{4}$S
678,4.909,,anhydrous:   66.7,218.7412,Cobalt(II) bromide,"CoBr$_{2}$,CoBr$_{2}$.6H$_{2}$O,CoBr$_{2}$.2H$_{2}$O"
,,,,,Unoprostone,C$_{22}$H$_{38}$O$_{5}$
,,,,,Pitrazepin,C$_{19}$H$_{19}$N$_{5}$
,,,,,Decane,C$_{10}$H$_{22}$
,1.286,,,,Benzo(e)pyrene,C$_{20}$H$_{12}$
,,,,339.4222,Propagermanium,C$_{6}$H$_{10}$O$_{7}$Ge$_{2}$
,,,,96.1,Sodium tert-butoxide,C$_{4}$H$_{9}$NaO
-30,,169-170,0.57,,Ethyl phenyl ether,C$_{8}$H$_{10}$O
,,,,,Disulfiram,C$_{10}$H$_{20}$N$_{2}$S$_{4}$
,,,,,Carbubarb,C$_{11}$H$_{17}$N$_{3}$O$_{5}$
426,4.145,1490,0.0062,98.999,Copper(I) chloride,CuCl
,,,,,Enadoline,C$_{24}$H$_{32}$N$_{2}$O$_{3}$
,,116-118,,,Thiazole,C$_{3}$H$_{3}$NS
,,93-94,,,Diethylpyrocarbonate,C$_{6}$H$_{10}$O$_{5}$
190,,,Insoluble,568.871,Lutein,C$_{40}$H$_{56}$O$_{2}$
,,,,,Ozagrel,C$_{13}$H$_{12}$N$_{2}$O$_{2}$
,,,,,Pranidipine,C$_{25}$H$_{24}$N$_{2}$O$_{6}$
-81,,46,20,,Propionaldehyde,C$_{3}$H$_{6}$O
,,,,,Phenindamine,C$_{19}$H$_{19}$N
,,,,,Pethidine intermediate A,
,,,,936.911,Bilirubin diglucuronide,C$_{45}$H$_{52}$N$_{4}$O$_{18}$
304.65,,528.25,2.63E+05,,Stizolobic acid,C$_{9}$H$_{9}$NO$_{6}$
,,,,,Clodronic acid,
286,,,Insoluble,205.17,Xanthurenic acid,C$_{10}$H$_{7}$NO$_{4}$
,,,,,Bucetin,C$_{12}$H$_{17}$NO$_{3}$
,,,,445.43,Tetrahydrofolic acid,C$_{19}$H$_{23}$N$_{7}$O$_{6}$
291,,,,,Mimosine,C$_{8}$H$_{10}$N$_{2}$O$_{4}$
223-225,1.478,,,180.16,Caffeic acid,C$_{9}$H$_{8}$O$_{4}$
,,,,,Thebacon,C$_{20}$H$_{23}$NO$_{4}$
,,,,,Flavin adenine dinucleotide,C$_{27}$H$_{33}$P$_{2}$N$_{9}$O$_{15}$
225,1.81,,270,,Acesulfame potassium,C$_{4}$H$_{4}$KNO$_{4}$S
-38,,176,,,Squalane,C$_{30}$H$_{62}$
,,,,,Vintafolide,C$_{86}$H$_{109}$N$_{21}$O$_{26}$S$_{2}$
,,,,,Silibinin,C$_{25}$H$_{22}$O$_{10}$
,,,,,Fenmetozole,C$_{10}$H$_{10}$Cl$_{2}$N$_{2}$O
,,,,,Cyclobis(paraquat-p-phenylene),C$_{36}$H$_{32}$N$_{4}$
,,,,,Pholcodine,C$_{23}$H$_{30}$N$_{2}$O$_{4}$
,,,,,Naratriptan,C$_{17}$H$_{25}$N$_{3}$O$_{2}$S
242,,,,330.418,Momilactone B,C$_{20}$H$_{26}$O$_{4}$
,,,,274.3,Phenylbenzimidazole sulfonic acid,C$_{13}$H$_{10}$N$_{2}$O$_{3}$S
1800,,,insoluble,121.9529,Aluminium phosphate,AlPO$_{4}$
,,,,,Sevelamer,chemical_formula[(C$_{3}$H$_{7}$N)$_{a+b}$.(C$_{9}$H$_{17}$N$_{2}$O)$_{c}$]$_{m}$; wherea+b:c9:
,,,,,Mefenamic acid,
116-120,1.2,,decomposition,211.96,Sodium triacetoxyborohydride,C$_{6}$H$_{10}$BNaO$_{6}$
,,,,,Budesonide,C$_{25}$H$_{34}$O$_{6}$
,,,,,Dexketoprofen,C$_{16}$H$_{14}$O$_{3}$
,,,,,Mepixanox,C$_{20}$H$_{21}$NO$_{3}$
,,,,,Tidiacic,C$_{5}$H$_{7}$NO$_{4}$S
,,,,,Indium acetylacetonate,InC$_{15}$H$_{21}$O$_{6}$
,,,,,Zotepine,C$_{18}$H$_{18}$ClNOS
,,,,,NCS-382,C$_{13}$H$_{14}$O$_{3}$
158,1.19,438,,,Benz(a)anthracene,C$_{18}$H$_{12}$
,,,,,Platelet-activating factor,C$_{26}$H$_{54}$NO$_{7}$P
,,,,278.39,Panaxytriol,C$_{17}$H$_{26}$O$_{3}$
,,,,938.66,Tellimagrandin II,C$_{41}$H$_{30}$O$_{26}$
,,,,,Indian yellow,C$_{19}$H$_{16}$O$_{10}$
,,,,,Human chorionic gonadotropin,
,,,,,Viomycin,C$_{25}$H$_{43}$N$_{13}$O$_{10}$
,,,,,Butyrfentanyl,C$_{23}$H$_{30}$N$_{2}$O
< 0,,66,,,Diethyl dithiophosphoric acid,C$_{4}$H$_{11}$O$_{2}$PS$_{2}$
,,,,,Cilobamine,C$_{17}$H$_{23}$Cl$_{2}$NO
,,,,,Oleoyl-estrone,C$_{36}$H$_{54}$O$_{3}$
,,,,,Dupracetam,C$_{12}$H$_{18}$N$_{4}$O$_{4}$
-88,,55,,,Allylamine,C$_{3}$H$_{7}$N
,,,,604.95,Bolazine,C$_{40}$H$_{64}$N$_{2}$O$_{2}$
,,,,,Flunoxaprofen,C$_{16}$H$_{12}$FNO$_{3}$
206,1.01,,,288.372,Sodium dodecyl sulfate,NaC$_{12}$H$_{25}$SO$_{4}$
154-158,,,low,,Phenylarsonic acid,C$_{6}$H$_{7}$AsO$_{3}$
197,,,,,Coprine,C$_{8}$H$_{14}$N$_{2}$O$_{4}$
,1.42,,,,Katanosin,C$_{58}$H$_{97}$N$_{15}$O$_{17}$
,,,,1036.3,Surfactin,C$_{53}$H$_{93}$N$_{7}$O$_{13}$
,,,,,Prenylamine,C$_{24}$H$_{27}$N
,,240,,,Geranyl acetate,C$_{12}$H$_{20}$O$_{2}$
,,,,,Desmethylclozapine,C$_{17}$H$_{17}$ClN$_{4}$
,,,,,Cefovecin,C$_{17}$H$_{19}$N$_{5}$O$_{6}$S$_{2}$
,,,,,Penamecillin,C$_{19}$H$_{22}$N$_{2}$O$_{6}$S
127,,>300,,,Sodium methoxide,CH$_{3}$NaO
,,,,,Eticlopride,C$_{17}$H$_{25}$ClN$_{2}$O$_{3}$
,,,,,Elobixibat,C$_{36}$H$_{45}$N$_{3}$O$_{7}$S$_{2}$
,,,,,Givinostat,C$_{24}$H$_{27}$N$_{3}$O$_{4}$
-93,0.677,95,"N/A, Highly reactive",98,Triethylborane,C$_{6}$H$_{15}$B
,,,,,Metribolone,C$_{19}$H$_{24}$O$_{2}$
-166,,-72,,65.0039,Nitryl fluoride,NO$_{2}$F
,,,,,Ibuproxam,C$_{13}$H$_{19}$NO$_{2}$
65,,,soluble,,Peroxydisulfuric acid,H$_{2}$S$_{2}$O$_{8}$
,,,,,Iodixanol,C$_{35}$H$_{44}$I$_{6}$N$_{6}$O$_{15}$
,,,,,Piribedil,C$_{16}$H$_{18}$N$_{4}$O$_{2}$
73-77,,,,128.13,Furaneol,C$_{6}$H$_{8}$O$_{3}$
,,,,,Pentamethylcyclopentadienyl ruthenium dichloride dimer,C$_{20}$H$_{30}$Cl$_{4}$Ru$_{2}$
438,,525,0.14,,Coronene,C$_{24}$H$_{12}$
,,,,257.87,Schwartz's reagent,C$_{10}$H$_{11}$ClZr
,,,,,TB-21007,C$_{15}$H$_{17}$NO$_{2}$S$_{3}$
,,,,,Tosufloxacin,C$_{19}$H$_{15}$F$_{3}$N$_{4}$O$_{3}$
,,,,,Ivermectin,C48H74O14(22.23-dihydroavermectinB$_{1a}$); <big>C$_{47}$H$_{72}$O$_{14}$</big>(22.23-dihydroavermectinB$_{1b}$)
,,,,,Dicoumarol,C$_{19}$H$_{12}$O$_{6}$
88-91,,204-206,insoluble,113.16,Cyclohexanone oxime,C$_{6}$H$_{11}$NO
,,,,,Nemifitide,C$_{33}$H$_{43}$FN$_{10}$O$_{6}$
,,,,835.609,Crotonyl-CoA,C$_{25}$H$_{40}$N$_{7}$O$_{17}$P$_{3}$S
,,,,,Pleuran,(C$_{6}$H$_{10}$O$_{5}$)$_{x}$
,,,,,Diphepanol,C$_{20}$H$_{25}$NO
,,,,,Caroverine,C$_{22}$H$_{27}$N$_{3}$O$_{2}$
132-135,,357-358,Insoluble in water,182.17,Ethyl protocatechuate,C$_{9}$H$_{10}$O$_{4}$
,,,,,Quinbolone,C$_{24}$H$_{32}$O$_{2}$
,,,,,Mercury(II) hydride,HgH$_{2}$
,,,,,Thiopropazate,C$_{23}$H$_{28}$ClN$_{3}$O$_{2}$S
18,1.118,323,insoluble,,Benzyl benzoate,C$_{14}$H$_{12}$O$_{2}$
,,,150,,Sodium percarbonate,Na$_{2}$CO$_{3}$.1.5H$_{2}$O$_{2}$
,,,,,JWH-203,C$_{21}$H$_{22}$ClNO
200-220,,,,786.73,Echinacoside,C$_{35}$H$_{46}$O$_{20}$
-12.2,1.22,150,0.0001% (20$^{\circ}$C),384.48,Ethion,C$_{9}$H$_{22}$O$_{4}$P$_{2}$S$_{4}$
,0.85,,,154.24,Myrcenol,C$_{10}$H$_{18}$O
-35,,370,,,Benzyl butyl phthalate,C$_{19}$H$_{20}$O$_{4}$
,,,,,Friedelin,C$_{30}$H$_{50}$O
34,,195,insoluble,,Benzyl cinnamate,C$_{16}$H$_{14}$O$_{2}$
,,,low,,Molybdenum(II) chloride,Cl$_{12}$Mo$_{6}$
182-256,1.263,,450,,Sodium ethyl xanthate,C$_{3}$H$_{5}$OS$_{2}$Na
,1.324,166-167,,163.06,Bromocyclohexane,C$_{6}$H$_{11}$Br
,,,,350.39,Fagaronine,C$_{21}$H$_{20}$NO$_{4}$
213,,,,,Celastrol,C$_{29}$H$_{38}$O$_{4}$
,,,,,Coenzyme A,C$_{21}$H$_{36}$N$_{7}$O$_{16}$P$_{3}$S
,,,,418.43,Syringaresinol,C$_{22}$H$_{26}$O$_{8}$
1160,4.55,,insoluble,258.12,Zinc phosphide,Zn$_{3}$P$_{2}$
630-820,,,0.5,392.13,Potassium heptafluorotantalate,K$_{2}$TaF$_{7}$
,,,,,Eltoprazine,C$_{12}$H$_{16}$N$_{2}$O$_{2}$
188,,,soluble,,Iron(II) gluconate,C$_{12}$H$_{22}$FeO$_{14}$
,,,,652.56,Brown HT,C$_{27}$H$_{18}$N$_{4}$Na$_{2}$O$_{9}$S$_{2}$
,,,,255.24,Guibourtinidin,C$_{15}$H$_{11}$O$_{4}$+Cl$^{-}$
56-57,0.862,311,,,Trimyristin,C$_{45}$H$_{86}$O$_{6}$
,,,,,Oxybuprocaine,C$_{17}$H$_{28}$N$_{2}$O$_{3}$
,,,,,Tricyclobutabenzene,C$_{12}$H$_{12}$
,,,,200.084,Erythrose 4-phosphate,C$_{4}$H$_{9}$O$_{7}$P
,,,,,Corynanthine,C$_{21}$H$_{26}$N$_{2}$O$_{3}$
112,,,highly soluble in water,249.24,Methylrhenium trioxide,CH$_{3}$ReO$_{3}$
,,,,,Obinutuzumab,C$_{6512}$H$_{10060}$N$_{1712}$O$_{2020}$S$_{44}$
,,,21,,Chromium(II) sulfate,CrSO$_{4}$5H$_{2}$O
,,,,372.36,Sinensetin,C$_{20}$H$_{20}$O$_{7}$
sublimes above 200,,,,,Niobium oxychloride,NbOCl$_{3}$
,,,,,Clodantoin,C$_{11}$H$_{17}$Cl$_{3}$N$_{2}$O$_{2}$S
,,,,,Medroxalol,C$_{20}$H$_{24}$N$_{2}$O$_{5}$
,,,,,Loratadine,C$_{22}$H$_{23}$ClN$_{2}$O$_{2}$
40-42,1.55,,,,Diphenylchlorarsine,C$_{12}$H$_{10}$AsCl
,,,,,Clorazepate,C$_{16}$H$_{11}$ClN$_{2}$O$_{3}$
250,3.327,,1.974,232.36,Caesium perchlorate,CsClO$_{4}$
334,2.109,decomposes at 400,133,101.1032,Potassium nitrate,KNO$_{3}$
1035,3.13,1500,,,Titanium(II) chloride,TiCl$_{2}$
,,,,,Umeclidinium bromide,
,,,,,Tetrabenazine,C$_{19}$H$_{27}$NO$_{3}$
,,,,,CP-154 526,C$_{23}$H$_{32}$N$_{4}$
,,,0.08,,Diflubenzuron,C$_{14}$H$_{9}$ClF$_{2}$N$_{2}$O$_{2}$
,,,,,Dixanthogen,C$_{6}$H$_{10}$O$_{2}$S$_{4}$
-2,1.16,102,25%,90.55,Potassium hypochlorite,KClO
123,,379,,,Diphenyl sulfone,C$_{12}$H$_{10}$O$_{2}$S
1377,5.745,3414,Insoluble,71.844,Iron(II) oxide,FeO
34.4,,,Water: 5.6,397.513,Bensulide,C$_{14}$H$_{24}$NO$_{4}$PS$_{3}$
,,,,740.52,Ferrichrome,C$_{27}$H$_{42}$FeN$_{9}$O$_{12}$
,,,,284.26,Acacetin,C$_{16}$H$_{12}$O$_{5}$
-11.2,,21.2,Hydrolyses,,Nitrogen dioxide,NO$^{.}_{2}$
,,,,,Vinconate,C$_{18}$H$_{20}$N$_{2}$O$_{2}$
-50,1.092,204,,247.51,Ethylaluminium sesquichloride,(C$_{2}$H$_{5}$)$_{2}$AlCl.Cl$_{2}$AlC$_{2}$H$_{5}$
,,,,268.33,Fremy's salt,K$_{2}$NO(SO$_{3}$)$_{2}$
380,2.42,,,,Ammonium chlorate,NH$_{4}$ClO$_{3}$
,,,,,Talbutal,C$_{11}$H$_{16}$N$_{2}$O$_{3}$
182,,,,,Akuammicine,C$_{20}$H$_{22}$N$_{2}$O$_{2}$
,,,,,Neuromedin N,C$_{38}$H$_{63}$N$_{7}$O$_{8}$
,,,,,Fluprednidene acetate,
,,,,664.84,Dideoxyverticillin A,C$_{30}$H$_{28}$N$_{6}$O$_{4}$S$_{4}$
586,7.642,,insoluble,800.761,Bismuth telluride,Bi$_{2}$Te$_{3}$
,,,,212.21,Urolithin B,C$_{13}$H$_{8}$O$_{3}$
232-233,,,22,,Biotin,C$_{10}$H$_{16}$N$_{2}$O$_{3}$S
,,,,,Ponceau 2R,C$_{18}$H$_{16}$N$_{2}$O$_{7}$S$_{2}$
,,,,,Ibrutinib,chemical_formulaC$_{231}$H$_{350}$N$_{62}$O$_{58}$S$_{6}$[C$_{2}$H$_{4}$O]$_{n}$
,,,,,Nicergoline,C$_{24}$H$_{26}$BrN$_{3}$O$_{3}$
,,,,,Remacemide,C$_{17}$H$_{20}$N$_{2}$O
245,1.02,,soluble,,Sodium stearate,C$_{18}$H$_{35}$NaO$_{2}$
306,3.74,420,,408.301,Protactinium(V) chloride,PaCl$_{5}$
,,,,92.1444,Disulfur dinitride,S$_{2}$N$_{2}$
,,,,,Volasertib,C$_{23}$H$_{25}$BrN$_{2}$O$_{3}$
,,,,,Ro15-4513,C$_{15}$H$_{14}$N$_{6}$O$_{3}$
,,,,,Tiadenol,C$_{14}$H$_{30}$O$_{2}$S$_{2}$
,,,,,AMN082,C$_{28}$H$_{30}$Cl$_{2}$N$_{2}$
,,,,,Romifidine,C$_{9}$H$_{9}$BrFN$_{3}$
-25.6,1.1812,117.9,7% (20$^{\circ}$C),92.52,Epichlorohydrin,C$_{3}$H$_{5}$ClO
,,,,,Theobromine,C$_{7}$H$_{8}$N$_{4}$O$_{2}$
,,,,,Sulfamethoxypyridazine,C$_{11}$H$_{12}$N$_{4}$O$_{3}$S
38.5,,115,,,N-Methylhydroxylamine,CNOH$_{5}$
,0.8,12-Sep,,,Methylenecyclopropane,C$_{4}$H$_{6}$
31,,,17.8,,Quinalphos,C$_{12}$H$_{15}$N$_{2}$O$_{3}$PS
1400,,,,,Dodecacalcium hepta-aluminate,Ca$_{12}$Al$_{14}$O$_{33}$
134,1.374,,8.42,,Epoxiconazole,C$_{17}$H$_{13}$ClFN$_{3}$O
-133,,-9.1,,68.48,Chlorofluoromethane,CH$_{2}$ClF
,1.22,,,,Sodium polyacrylate,(C$_{3}$H$_{3}$NaO$_{2}$)$_{n}$
41.6,,,,254.77,Selenium oxybromide,SeOBr$_{2}$
,,,,,A-Methylfentanyl,C$_{23}$H$_{30}$N$_{2}$O
,,,,,Benzododecinium bromide,C$_{21}$H$_{38}$N$^{+}$.Br$^{-}$
1090,1.853,,Decomposes,92.218,Silicon sulfide,SiS$_{2}$
,,174,5,154.163193,Hydroxytyrosol,C$_{8}$H$_{10}$O$_{3}$
,,,,,Emedastine,C$_{17}$H$_{26}$N$_{4}$O
156,,174,"Soluble, hygroscopic",,DABCO,C$_{6}$H$_{12}$N$_{2}$
,,,,,Tesofensine,C$_{17}$H$_{23}$Cl$_{2}$NO
,,,,,Droxypropine,C$_{18}$H$_{27}$NO$_{3}$
,,,,284.26,Retusin (isoflavone),C$_{16}$H$_{12}$O$_{5}$
690,3.357,1750,0.8,181.88,Vanadium(V) oxide,V$_{2}$O$_{5}$
,,,,,Nylon 46,(C$_{10}$H$_{18}$N$_{2}$O$_{2}$)$_{n}$
,,,,,Chloramphenicol,C$_{11}$H$_{12}$Cl$_{2}$N$_{2}$O$_{5}$
,0.8684,40,,,Isopropyl nitrite,
,,,,,Iodite,IO$^{-}_{2}$
,,,,,Teixobactin,C$_{15}$H$_{25}$NO$_{3}$
58-60,,,,,Glucal,C$_{6}$H$_{10}$O$_{4}$
300,1.239,310.7,,,Aminomethylbenzoic acid,
,,,,,Pterin,C$_{6}$H$_{5}$N$_{5}$O
176-178,1.76,,26.9,,Glucuronolactone,C$_{6}$H$_{8}$O$_{6}$
-16,,165,,122.19,Thiodiglycol,C$_{4}$H$_{10}$O$_{2}$S
,,,,,Clostebol,C$_{19}$H$_{27}$ClO$_{2}$
,,,,,Mercury(I) iodide,Hg$_{2}$I$_{2}$
,,295.2,,,Allysine,C$_{6}$H$_{11}$NO$_{3}$
,,,,,Pepstatin,C$_{34}$H$_{63}$N$_{5}$O$_{9}$
71.5,0.936,,soluble,194.673,Silver tetrafluoroborate,AgBF$_{4}$
,,,,486.47,Aquayamycin,C$_{25}$H$_{26}$O$_{10}$
,,,,288.511,Pregnane,C$_{21}$H$_{36}$
,,,,,Octaethylene glycol monododecyl ether,C$_{28}$H$_{58}$O$_{9}$
,,,,,Taribavirin,C$_{8}$H$_{13}$N$_{5}$O$_{4}$
,,,,,Ambrisentan,C$_{22}$H$_{22}$N$_{2}$O$_{4}$
110,,277,110,110.1,Resorcinol,C$_{6}$H$_{6}$O$_{2}$
,,,,,Simple dapsone,C$_{12}$H$_{12}$N$_{2}$O$_{2}$S
,,,,,Teplizumab,C$_{6462}$H$_{9938}$N$_{1738}$O$_{2022}$S$_{46}$
0,,,,234.29,Gyrinal,C$_{14}$H$_{18}$O$_{3}$
,,,,,Alemtuzumab,C$_{6468}$H$_{10066}$N$_{1732}$O$_{2005}$S$_{40}$
112,1.73,,insoluble,452.15,Mannitol hexanitrate,C$_{6}$H$_{8}$N$_{6}$O$_{18}$
0,,,,,Dimethylamidophosphoric dichloride,C$_{2}$H$_{6}$OPCl$_{2}$
,,,,,Ulipristal acetate,
-20.5,0.98797,141.15,8.19,,Propionic acid,C$_{3}$H$_{6}$O$_{2}$
,1.27,,insoluble in water,614.74,Tetraphenylporphyrin,C$_{44}$H$_{30}$N$_{4}$
,,,,1302.28,Caldarchaeol,C$_{86}$H$_{172}$O$_{6}$
141-144,1.272,230,2.46,,Suberic acid,C$_{8}$H$_{14}$O$_{4}$
,,,Reacts,,Sulfanyl,HS$^{.}$
,,,,,Metostilenol,C$_{15}$H$_{21}$NO$_{3}$
,,,,,Sitagliptin,C$_{16}$H$_{15}$F$_{6}$N$_{5}$O
-71,0.876,,,130.19,Amyl acetate,C$_{7}$H$_{14}$O$_{2}$