Name,formula,Property Molar Mass,Property Molar Mass units,Property Melting Point,Property Melting Point units,Property Density,Property Density units,Property Boiling Point,Property Boiling Point units,Property Solubility
Bis(triethoxysilylpropyl)tetrasulfide,C$_{18}$H$_{42}$O$_{6}$S$_{4}$Si$_{2}$,,,,,1.08,g/cm$^{3}$,,,
Green S,C$_{27}$H$_{25}$N$_{2}$NaO$_{7}$S$_{2}$,576.62,g/mol,210,$^{\circ}$C,,,,,
Bococizumab,C$_{6414}$H$_{9918}$N$_{1722}$O$_{2012}$S$_{54}$,,,,,,,,,
Tacalcitol,C$_{27}$H$_{44}$O$_{3}$,,,,,,,,,
SR-142 948,,,,,,,,,,
Lepirudin,C$_{288}$H$_{448}$N$_{80}$O$_{110}$S$_{6}$,,,,,,,,,
Hopane,C$_{30}$H$_{52}$,,,,,,,,,
Phenylalanine,C$_{9}$H$_{11}$O$_{2}$N,,,,,,,,,
Direct Blue 1,C$_{34}$H$_{24}$N$_{6}$Na$_{4}$O$_{16}$S$_{4}$,,,,,,,,,
Brucine,C$_{23}$H$_{26}$N$_{2}$O$_{4}$,,,178,$^{\circ}$C,,,,,
Scoparone,C$_{11}$H$_{10}$O$_{4}$,,,143,$^{\circ}$C,,,,,
Quinapyramine,C17H21N6charge+,,,,,,,,,
Titanium ethoxide,C$_{32}$H$_{80}$O$_{16}$Ti$_{4}$,228.109,g/mol,,,,,,,
Methylhexanamine,C$_{7}$H$_{17}$N,,,,,,,134,$^{\circ}$C,soluble in water
Chromyl chloride,CrO$_{2}$Cl$_{2}$,154.9008,g/mol,-96.5,$^{\circ}$C,,,117,$^{\circ}$C,Reacts
Sodium bisulfate,NaHSO$_{4}$,120.06,g/mol,58.5,$^{\circ}$C,2.742,g/cm$^{3}$,315,$^{\circ}$C,28.5
Tremorine,C$_{12}$H$_{20}$N$_{2}$,,,,,,,,,
Caesium auride,CsAu,,,,,,,,,
Tiazofurin,C$_{9}$H$_{12}$N$_{2}$O$_{5}$S,,,,,,,,,
Methylatropine,C$_{18}$H$_{26}$NO$_{3}$,,,,,,,,,
Xeractinol,C$_{21}$H$_{22}$O$_{12}$,466.39,g/mol,,,,,,,
Pyroglutamyl-histidyl-glycine,C$_{13}$H$_{17}$N$_{5}$O$_{5}$,323.30,g/mol,,,,,,,
Angiotensinamide,C$_{49}$H$_{70}$N$_{14}$O,,,,,,,,,
Nitrosonium octafluoroxenate(VI),(NO)$_{2}$XeF$_{8}$,,,,,3.354,g/cm$^{3}$,,,Reacts
Deoxycytidine monophosphate,C$_{9}$H$_{14}$N$_{3}$O$_{7}$P,307.197,g/mol,,,,,,,
Moxastine,C$_{18}$H$_{23}$NO,,,,,,,,,
Cobalt(II) thiocyanate,CoS$_{2}$C$_{2}$N$_{2}$,175.098,g/mol,,,,,,,
Verdamicin,C$_{20}$H$_{39}$N$_{5}$O$_{7}$,,,,,,,,,
Neophyl chloride,C$_{10}$H$_{13}$Cl,168.663,g/mol,,,1.047,g/cm$^{3}$,223,$^{\circ}$C,organic solvents
Plutonium(III) chloride,PuCl$_{3}$,350.322,g/mol,767,$^{\circ}$C,,,1767,$^{\circ}$C,
Confusarin,C$_{17}$H$_{16}$O$_{5}$,300.30,g/mol,,,,,,,
Indiplon,C$_{20}$H$_{16}$N$_{4}$O$_{2}$S,,,,,,,,,
Sodium tetrafluoroborate,NaBF$_{4}$,109.794,g/mol,384,$^{\circ}$C,2.47,g/cm$^{3}$,,,
Prednisone,C$_{21}$H$_{26}$O$_{5}$,,,,,,,,,
Dirlotapide,C$_{40}$H$_{33}$F$_{3}$N$_{4}$O$_{3}$,,,,,,,,,
Dasatinib,C$_{22}$H$_{26}$ClN$_{7}$O$_{2}$S,,,,,,,,,
Protokylol,C$_{18}$H$_{21}$NO$_{5}$,,,,,,,,,
Sodium trimetaphosphate,Na$_{3}$P$_{3}$O$_{9}$,305.885,g/mol,53,$^{\circ}$C,2.49,g/cm$^{3}$,,,22
Chlorphentermine,C$_{10}$H$_{14}$ClN,,,,,,,,,
Carboxymethyl cellulose,variable,,,,,,,,,
L-765 314,,,,,,,,,,
Cerevisterol,C$_{26}$H$_{46}$O$_{3}$,,,265.3,$^{\circ}$C,,,,,
Aspalathin,C$_{21}$H$_{24}$O,,,,,,,,,
Acetorphine,C$_{27}$H$_{35}$NO$_{5}$,,,,,,,,,
Acetosyringone,C$_{10}$H$_{12}$O$_{4}$,,,125.5,$^{\circ}$C,,,335,$^{\circ}$C,
Dichlorophene,C$_{13}$H$_{10}$Cl$_{2}$O$_{2}$,269.12,g/mol,177.5,$^{\circ}$C,1.42,g/cm$^{3}$,,,0.003
Mannitol,IUPACName(2''R''@comma@3''R''@comma@4''R''@comma@5''R'')-Hexan-1@comma@2@comma@3@comma@4@comma@5@comma@6-hexol,,,,,,,,,
Retinyl acetate,C$_{22}$H$_{32}$O$_{2}$,,,57,$^{\circ}$C,,,,,
IAEDANS,C$_{14}$H$_{15}$IN$_{2}$O$_{4}$S,434.25,g/mol,,,,,,,
Arctiin,C$_{27}$H$_{34}$O,,,110-112,$^{\circ}$C,,,,,
Gallium(III) selenide,Ga$_{2}$Se$_{3}$,376.33,g/mol,1020,$^{\circ}$C,4.92,g/cm$^{3}$,,,decomposition
Balanophonin,C$_{20}$H$_{20}$O$_{6}$,356.37,g/mol,,,,,,,
Cefuroxime axetil,,,,,,,,,,
A-41988,C$_{28}$H$_{32}$FNO$_{2}$,,,,,,,,,
Valienol,C$_{7}$H$_{12}$O$_{5}$,,,,,,,,,
Calcium cyanide,Ca(CN)$_{2}$,92.1128,g/mol,640,$^{\circ}$C,,,,,soluble
Manidipine,C$_{35}$H$_{38}$N$_{4}$O$_{6}$,,,,,,,,,
Ytterbium(II) chloride,YbCl$_{2}$,243.95,g/mol,721,$^{\circ}$C,,,,,reacts
BW A444,,,,,,,,,,
LGD-3303,C$_{16}$H$_{14}$ClF$_{3}$N$_{2}$O,,,,,,,,,
Epibatidine,C$_{11}$H$_{13}$ClN$_{2}$,,,,,,,,,
Platinum tetrafluoride,F$_{4}$Pt,,,600,$^{\circ}$C,7.08,g/cm$^{3}$,,,
Heme C,C$_{34}$H$_{36}$O$_{4}$N$_{4}$S$_{2}$Fe,684.64904,g/mol,,,,,,,
Cholestane,C$_{27}$H$_{48}$,,,,,,,,,
Dasabuvir,C$_{26}$H$_{27}$N$_{3}$O$_{5}$S,,,,,,,,,
Gemcitabine,C$_{9}$H$_{11}$F$_{2}$N$_{3}$O$_{4}$,,,,,,,,,
Ketoprofen,C$_{16}$H$_{14}$O$_{3}$,,,,,,,,,
MTEP,C$_{11}$H$_{8}$N$_{2}$S,,,,,,,,,
Alatrofloxacin,C$_{26}$H$_{25}$F$_{3}$N$_{6}$O$_{5}$,,,,,,,,,
Ozone,O$_{3}$,,,,,,,,,1.05
Epoetin alfa,,,,,,,,,,
Aurantinidin,C$_{15}$H$_{11}$O$^{+}_{6}$,287.24,g/mol,,,,,,,
Mannose 6-phosphate,C$_{6}$H$_{13}$O$_{9}$P,260.136,g/mol,,,,,,,
Lysergic acid 2-butyl amide,,,,,,,,,,
Tetrachlorvinphos,C$_{10}$H$_{9}$Cl$_{4}$O$_{4}$P,,,97-98,$^{\circ}$C,,,,,
Cetrorelix,C$_{70}$H$_{92}$ClN$_{17}$O$_{14}$,,,,,,,,,
Cysmethynil,C$_{25}$H$_{32}$N$_{2}$O,,,247.08,$^{\circ}$C,,,594.156,$^{\circ}$C,0.005429
Oxoborane,HBO,,,,,,,,,
Butane,C$_{4}$H$_{10}$,,,,,,,,,61
Trifluridine,C$_{10}$H$_{11}$F$_{3}$N$_{2}$O$_{5}$,,,,,,,,,
Isopropylamphetamine,C$_{12}$H$_{19}$N,,,,,,,,,
Urea,H$_{4}$CON$_{2}$,,,133-135,$^{\circ}$C,1.32,g/cm$^{3}$,,,107.9
Oxolamine,C$_{14}$H$_{19}$N$_{3}$O,,,,,,,,,
Genistein,C$_{15}$H$_{10}$O$_{5}$,,,,,,,,,
Ciclosporin,C$_{62}$H$_{111}$N$_{11}$O$_{12}$,,,,,,,,,
Xenon trioxide,XeO$_{3}$,179.288,g/mol,25,$^{\circ}$C,,,,,Soluble (with reaction)
Hydrogen bromide,HBr,,,-86.9,$^{\circ}$C,,,-66.8,$^{\circ}$C,221
Nickel(II) bromide,NiBr$_{2}$,218.53,g/mol,963,$^{\circ}$C,5.098,g/cm$^{3}$,,,113
Isobucaine,C$_{15}$H$_{23}$NO$_{2}$,,,,,,,,,
Ungeremine,C$_{16}$H$_{12}$NO$_{3}$,,,,,,,,,
Prodigiosin,C$_{20}$H$_{25}$N$_{3}$O,323.432,g/mol,,,,,,,
Sodium persulfate,Na$_{2}$S$_{2}$O$_{8}$,238.10,g/mol,180,$^{\circ}$C,2.59,g/cm$^{3}$,,,55.6
Skatole,C$_{9}$H$_{9}$N,,,93,$^{\circ}$C,,,265,$^{\circ}$C,Insoluble
Metoclopramide,C$_{14}$H$_{22}$ClN$_{3}$O$_{2}$,,,,,,,,,
Darbepoetin alfa,,,,,,,,,,
Hydrogen disulfide,H$_{2}$S$_{2}$,,,-89.6,$^{\circ}$C,,,70.7,$^{\circ}$C,
Clofibride,C$_{16}$H$_{22}$ClNO$_{4}$,,,,,,,,,
Methanethiol,CH$_{4}$S,,,-123,$^{\circ}$C,,,5.95,$^{\circ}$C,2%
Trifolin,C$_{21}$H$_{20}$O$_{11}$,448.37,g/mol,,,,,,,
Benzyl chloroformate,C$_{8}$H$_{7}$ClO$_{2}$,,,,,1.195,g/cm$^{3}$,103,$^{\circ}$C,
Fluorine perchlorate,FClO$_{4}$,,,-167.3,$^{\circ}$C,,,-16,$^{\circ}$C,
Ellagic acid,C$_{14}$H$_{6}$O$_{8}$,302.197,g/mol,,,1.67,g/cm$^{3}$,,,
Sodium hydrosulfide,NaHS,56.063,g/mol,350,$^{\circ}$C,1.79,g/cm$^{3}$,,,50
Parathion,C$_{10}$H$_{14}$NO$_{5}$PS,,,6,$^{\circ}$C,,,,,24
Oxydemeton-methyl,C$_{6}$H$_{15}$O$_{4}$PS$_{2}$,,,-20,$^{\circ}$C,1.289,g/cm$^{3}$,106,$^{\circ}$C,Miscible
Tetraethylmethane,C$_{9}$H$_{20}$,,,,,,,,,
Deoxyadenosine diphosphate,C$_{10}$H$_{15}$N$_{5}$O$_{9}$P$_{2}$,,,,,,,,,
Amdoxovir,C$_{9}$H$_{12}$N$_{6}$O$_{3}$,,,,,,,,,
Hexol,Co$_{4}$H$_{42}$N$_{12}$O$_{18}$S$_{3}$,,,,,,,,,Sparingly soluble in water
Arabitol,C$_{5}$H$_{12}$O$_{5}$,,,103,$^{\circ}$C,,,,,Miscible
Triethyloxonium tetrafluoroborate,C$_{6}$H$_{15}$BF$_{4}$O,,,91-92,$^{\circ}$C,,,,,Reacts
Pimavanserin,C$_{25}$H$_{34}$FN$_{3}$O$_{2}$,,,,,,,,,
Sonidegib,C$_{26}$H$_{26}$F$_{3}$N$_{3}$O$_{3}$,,,,,,,,,
Gamma-Glutamylmethylamide,C$_{6}$H$_{12}$N$_{2}$O$_{3}$,160.17,g/mol,,,,,427.5,$^{\circ}$C,
Triruthenium dodecacarbonyl,C$_{12}$O$_{12}$Ru$_{3}$,639.33,g/mol,224,$^{\circ}$C,2.48,g/cm$^{3}$,,,insoluble
PEG 400,"C$_{2n}$H$_{4n+2}$O$_{n+1}$,n8.2to9.",380-420,g/mol,4-8,$^{\circ}$C,1.128,g/cm$^{3}$,,,
Alpha-Methylserotonin,C$_{11}$H$_{14}$N$_{2}$O,,,,,,,,,
Lutetium(III) chloride,LuCl$_{3}$,281.325,g/mol,905,$^{\circ}$C,3.98,g/cm$^{3}$,,,soluble
Avizafone,C$_{22}$H$_{27}$ClN$_{4}$O$_{3}$,,,,,,,,,
Fenamiphos,C$_{13}$H$_{22}$NO$_{3}$PS,303.357,g/mol,,,1.14,g/cm$^{3}$,,,0.03% (20$^{\circ}$C)
Potassium aluminate,K$_{2}$Al$_{2}$O$_{4}$,196.157,g/mol,,,,,,,very soluble
Fedrilate,C$_{20}$H$_{29}$NO$_{4}$,,,,,,,,,
Trifluoperazine,C$_{21}$H$_{24}$F$_{3}$N$_{3}$S,,,,,,,,,
Besipirdine,C$_{16}$H$_{17}$N$_{3}$,,,,,,,,,
Prostratin,C$_{22}$H$_{30}$O$_{6}$,390.47,g/mol,,,,,,,
Sulbenicillin,C$_{16}$H$_{18}$N$_{2}$O$_{7}$S$_{2}$,,,,,,,,,
Traumatic acid,C$_{12}$H$_{20}$O$_{4}$,,,166-167,$^{\circ}$C,,,150-160,$^{\circ}$C,Sparingly soluble
Brifentanil,C$_{20}$H$_{29}$FN$_{6}$O$_{3}$,,,,,,,,,
Tris(2-pyridylmethyl)amine,C$_{18}$H$_{18}$N$_{4}$,,,73-77,$^{\circ}$C,,,,,
Titan yellow,C$_{28}$H$_{19}$N$_{5}$Na$_{2}$O$_{6}$S$_{4}$,695.720,g/mol,,,,,,,
Phenylthiocarbamide,C$_{7}$H$_{8}$N$_{2}$S,,,145-150,$^{\circ}$C,1.294,g/cm$^{3}$,,,Soluble in boiling water
Wogonin,C$_{16}$H$_{12}$O$_{5}$,,,203-206,$^{\circ}$C,,,,,
Pyrophosphoric acid,H$_{4}$P$_{2}$O$_{7}$,177.98,g/mol,71.5,$^{\circ}$C,,,,,Extremely soluble
Nitroimidazole,C$_{3}$H$_{3}$N$_{3}$O$_{2}$,113.07,g/mol,303,$^{\circ}$C,,,,,
Cadmium arsenide,Cd$_{3}$As,487.08,g/mol,716,$^{\circ}$C,,,,,decomposes in water
Potassium canrenoate,,,,,,,,,,
Pitolisant,C$_{17}$H$_{26}$ClNO,295.846,g/mol,,,,,,,
Cobalt(II) chloride,CoCl$_{2}$,129.839,g/mol,735,$^{\circ}$C,3.356,g/cm$^{3}$,1049,$^{\circ}$C,43.6
Pexacerfont,C$_{18}$H$_{24}$N$_{6}$O,,,,,,,,,
Methyl propionate,C$_{4}$H$_{8}$O$_{2}$,,,-88,$^{\circ}$C,,,80,$^{\circ}$C,72
DAA-1097,C$_{24}$H$_{24}$ClNO$_{3}$,,,,,,,,,
Sulfinpyrazone,C$_{23}$H$_{20}$N$_{2}$O$_{3}$S,,,,,,,,,
Tetrarhodium dodecacarbonyl,C$_{12}$O$_{12}$Rh$_{4}$,747.743,g/mol,,,,,,,
Insulin aspart,,,,,,,,,,
Anisodamine,C$_{17}$H$_{23}$NO$_{4}$,,,,,,,,,
Usnic acid,C$_{18}$H$_{16}$O$_{7}$,344.315,g/mol,204,$^{\circ}$C,,,,,
Tin(IV) chloride,SnCl$_{4}$,260.50,g/mol,-34.07,$^{\circ}$C,2.226,g/cm$^{3}$,114.15,$^{\circ}$C,decomposes
Amurensine,C$_{19}$H$_{19}$NO$_{4}$,325.35,g/mol,,,,,,,
Dimetofrine,C$_{11}$H$_{17}$NO$_{4}$,,,,,,,,,
Zalospirone,C$_{24}$H$_{29}$N$_{5}$O$_{2}$,,,,,,,,,
Methylnitronitrosoguanidine,C$_{2}$H$_{5}$N$_{5}$O$_{3}$,147.09,g/mol,118,$^{\circ}$C,,,,,"reacts violently, slowly hydrolysed"
AM404,C$_{26}$H$_{37}$NO$_{2}$,,,,,,,,,
Repirinast,C$_{20}$H$_{21}$NO$_{5}$,,,,,,,,,
Flutemetamol (18F),,,,,,,,,,
Titanium diselenide,TiSe$_{2}$,,,,,,,,,
CP-226 269,,,,,,,,,,
Tellurium tetraiodide,TeI$_{4}$,635.218,g/mol,280,$^{\circ}$C,,,,,
Isomalathion,C$_{10}$H$_{19}$O$_{6}$PS$_{2}$,330.36,g/mol,,,,,,,
Cytochalasin E,C$_{28}$H$_{33}$NO$_{7}$,,,,,,,,,
Estetrol,C$_{18}$H$_{24}$O$_{4}$,304.38,g/mol,,,,,,,
Ethyl maltol,C$_{7}$H$_{8}$O$_{3}$,140.14,g/mol,85-95,$^{\circ}$C,,,161,$^{\circ}$C,
Norfenefrine,C$_{8}$H$_{11}$NO$_{2}$,,,,,,,,,
Anhalidine,C$_{12}$H$_{17}$NO$_{3}$,,,,,,,,,
Potassium hydride,KH,40.1062,g/mol,,,1.43,g/cm$^{3}$,,,reacts
Prunetin,C$_{16}$H$_{12}$O$_{5}$,284.26,g/mol,,,,,,,
Platinum fulminate,Pt(CNO)$_{2}$,,,,,,,,,
Undecylenic acid,C$_{11}$H$_{20}$O$_{2}$,,,23,$^{\circ}$C,,,275,$^{\circ}$C,
Leucopelargonidin,C$_{15}$H$_{14}$O$_{6}$,,,,,,,,,
Raloxifene,C$_{28}$H$_{27}$NO$_{4}$S,,,,,,,,,
Dezocine,C$_{16}$H$_{23}$NO,,,,,,,,,
Nesiritide,C$_{143}$H$_{244}$N$_{50}$O$_{42}$S$_{4}$,,,,,,,,,
Tin(II) sulfate,SnSO$_{4}$,214.773,g/mol,378,$^{\circ}$C,4.15,g/cm$^{3}$,,,33
Silver nitride,Ag$_{3}$N,,,,,9,g/cm$^{3}$,,,
Trichloroacetic acid,C$_{2}$HCl$_{3}$O$_{2}$,,,57,$^{\circ}$C,1.63,g/cm$^{3}$,196,$^{\circ}$C,Soluble in 0.1
Tetracalcium phosphate,Ca$_{4}$(PO$_{4}$)$_{2}$O,366.254124,g/mol,,,,,,,
Mianserin,C$_{18}$H$_{20}$N$_{2}$,,,,,,,,,
Phosgene,COCl$_{2}$,,,-118,$^{\circ}$C,,,8.3,$^{\circ}$C,decomposes in water
Vargulin,C$_{22}$H$_{27}$N$_{7}$O,,,,,,,,,
Carbaryl,C$_{12}$H$_{11}$NO$_{2}$,,,142,$^{\circ}$C,1.2,g/cm$^{3}$,,,very low (0.01% at 20$^{\circ}$C)
Oxytocin,C$_{43}$H$_{66}$N$_{12}$O$_{12}$S$_{2}$,,,,,,,,,
Leupeptin,C$_{20}$H$_{38}$N$_{6}$O$_{4}$,,,,,,,,,
Cerium hexaboride,CeB$_{6}$,204.986,g/mol,,,4.80,g/cm$^{3}$,,,insoluble
Hidrosmin,C$_{30}$H$_{36}$O$_{16}$,,,,,,,,,
Homodihydrocapsaicin,C$_{19}$H$_{31}$NO$_{3}$,321.46,g/mol,,,,,,,
Zirconium diboride,ZrB$_{2}$,112.85,g/mol,~3246,$^{\circ}$C,6.085,g/cm$^{3}$,,,Insoluble
Pentamorphone,C$_{22}$H$_{28}$N$_{2}$O$_{3}$,,,,,,,,,
Proquazone,C$_{18}$H$_{18}$N$_{2}$O,,,,,,,,,
Telithromycin,C$_{43}$H$_{65}$N$_{5}$O$_{10}$,,,,,,,,,
Nonanoic acid,C$_{9}$H$_{18}$O$_{2}$,158.23,g/mol,12.5,$^{\circ}$C,0.900,g/cm$^{3}$,254,$^{\circ}$C,0.3
Cyclopentadienylcobalt dicarbonyl,CPCo(CO)$_{2}$,180.05,g/mol,-22,$^{\circ}$C,1.35,g/cm$^{3}$,139-140,$^{\circ}$C,Insoluble
Rhododendrin,C$_{16}$H$_{24}$O$_{7}$,328.36,g/mol,,,,,,,
Quercitannic acid,"several,seetext",,,,,,,,,
Alfetamine,C$_{11}$H$_{15}$N,,,,,,,,,
RTI-353,C$_{17}$H$_{22}$INO$_{2}$,,,,,,,,,
Manganese(III) fluoride,MnF$_{3}$,111.938,g/mol,,,3.54,g/cm$^{3}$,,,hydrolysis
Viqualine,C$_{20}$H$_{26}$N$_{2}$O,,,,,,,,,
Oxalic anhydride,C$_{2}$O$_{3}$,,,,,,,,,
Tolgabide,C$_{18}$H$_{18}$Cl$_{2}$N$_{2}$O$_{2}$,,,,,,,,,
Resveratrol,C$_{14}$H$_{12}$O$_{3}$,,,261-263,$^{\circ}$C,,,,,
Fencamfamine,C$_{15}$H$_{21}$N,,,,,,,,,
Isobutyl nitrite,C$_{4}$H$_{9}$NO$_{2}$,,,,,,,67,$^{\circ}$C,Slightly soluble
Calcium citrate malate,(C$_{6}$H$_{7}$O$_{7}$)$_{x}$.(C$_{4}$H$_{5}$O$_{5}$)$_{y}$.(Ca$^{2+}$)$_{z}$,,,,,,,,,
ICI-204 448,,,,,,,,,,
Ro-44-3888,C$_{16}$H$_{21}$NO$_{2}$,,,,,,,,,
Pioglitazone,C$_{19}$H$_{20}$N$_{2}$O$_{3}$S,,,,,,,,,
Lanthanum hexaboride,LaB$_{6}$,203.78,g/mol,2210,$^{\circ}$C,4.72,g/cm$^{3}$,,,insoluble
Mallotusinic acid,C$_{48}$H$_{32}$O$_{32}$,1120.74,g/mol,,,,,,,
S-18986,C$_{10}$H$_{12}$N$_{2}$O$_{2}$S,,,,,,,,,
Palbociclib,C$_{24}$H$_{29}$N$_{7}$O$_{2}$,,,,,,,,,
Quebrachitol,C$_{7}$H$_{14}$O$_{6}$,194.18,g/mol,190-198,$^{\circ}$C,,,,,"Soluble in DMSO, dimethyl formamide, or water"
Dactinomycin,C$_{62}$H$_{86}$N$_{12}$O$_{16}$,,,,,,,,,
Bicinchoninic acid,C$_{20}$H$_{12}$N$_{2}$O$_{4}$,,,365,$^{\circ}$C,,,,,"Partially soluble in cold water, hot water"
Rolitetracycline,C$_{27}$H$_{33}$N$_{3}$O$_{8}$,,,,,,,,,
MPPF,C$_{25}$H$_{27}$FN$_{4}$O$_{2}$,434.51,g/mol,,,,,,,
Glycerol,C$_{3}$H$_{8}$O$_{3}$,,,17.8,$^{\circ}$C,1.261,g/cm$^{3}$,290,$^{\circ}$C,miscible
WIN 35428,,,,202,$^{\circ}$C,,,,,
Parafluorofentanyl,C$_{22}$H$_{27}$FN$_{2}$O,,,,,,,,,
Alcian yellow,C$_{40}$H$_{46}$N$_{8}$S$_{4}$,767.11,g/mol,,,,,,,
Polonium tetrachloride,PoCl$_{4}$,350.79,g/mol,,,,,390,$^{\circ}$C,"soluble, but rather slow hydrolysis"
Ribose,C$_{5}$H$_{10}$O$_{5}$,150.13,g/mol,95,$^{\circ}$C,,,,,very soluble
Fenretinide,C$_{26}$H$_{33}$NO$_{2}$,391.546,g/mol,,,,,,,
Geranyl pyrophosphate,C$_{10}$H$_{20}$O$_{7}$P$_{2}$,,,,,,,,,
Saralasin,C$_{42}$H$_{65}$N$_{13}$O$_{10}$,912.05,g/mol,,,,,,,
Cucurbitin,C$_{5}$H$_{10}$N$_{2}$O$_{2}$,,,,,,,279,$^{\circ}$C,
Atenolol,C$_{14}$H$_{22}$N$_{2}$O$_{3}$,,,,,,,,,
Tetramethrin,C$_{19}$H$_{25}$NO$_{4}$,331.406,g/mol,65-80,$^{\circ}$C,1.108,g/cm$^{3}$,,,0.00183
Tetrafluoroethylene,C$_{2}$F$_{4}$,100.02,g/mol,-142.5,$^{\circ}$C,,,-76.3,$^{\circ}$C,
Debrisoquine,C$_{10}$H$_{13}$N$_{3}$,,,,,,,,,
Ro4938581,C$_{13}$H$_{8}$BrF$_{2}$N$_{5}$,,,,,,,,,
HT-2157,C$_{21}$H$_{13}$F$_{3}$N$_{2}$O,,,,,,,,,
Pterocarpin,C$_{17}$H$_{14}$O$_{5}$,298.29,g/mol,,,,,,,
Cefradine,C$_{16}$H$_{19}$N$_{3}$O$_{4}$S,,,,,,,,,
Paxilline,C$_{27}$H$_{33}$NO$_{4}$,435.56,g/mol,,,,,,,
Pseudouridine,C$_{9}$H$_{12}$N$_{2}$O$_{6}$,244.20,g/mol,,,,,,,Highly soluble in water.
Tetryl,C$_{7}$H$_{5}$N$_{5}$O$_{8}$,287.15,g/mol,129.5,$^{\circ}$C,1.73,g/cm$^{3}$,Decomposes at 187,$^{\circ}$C,virtually insoluble in H$_{2}$O
Netupitant,chemical_formulaC$_{30}$H$_{32}$F$_{6}$N$_{4}$O,,,,,,,,,
Aniline,C$_{6}$H$_{5}$NH$_{2}$,93.13,g/mol,-6.3,$^{\circ}$C,,,184.13,$^{\circ}$C,
Triphenyltin chloride,C$_{18}$H$_{15}$ClSn,385.4747,g/mol,108,$^{\circ}$C,,,240,$^{\circ}$C,organic solvents
DME (psychedelic),C$_{10}$H$_{15}$NO$_{3}$,197.23,g/mol,,,,,,,
Alachlor,C$_{14}$H$_{20}$ClNO$_{2}$,269.767,g/mol,,,,,,,
SCH-79687,C$_{18}$H$_{16}$Cl$_{2}$N$_{4}$O,375.251,g/mol,,,,,,,
Sorafenib,C$_{21}$H$_{16}$ClF$_{3}$N$_{4}$O$_{3}$,,,,,,,,,
N-Methyl-N-ethyltryptamine,C$_{20}$H$_{28}$O,202.295,g/mol,,,,,,,
Plicatin A,C$_{15}$H$_{18}$O$_{4}$,262.30,g/mol,,,,,,,
Probucol,C$_{31}$H$_{48}$O$_{2}$S$_{2}$,,,,,,,,,
Bromine monofluoride,BrF,98.903,g/mol,-33,$^{\circ}$C,,,20,$^{\circ}$C,
SDZ SER-082,,,,,,,,,,
Lapatinib,C$_{29}$H$_{26}$ClFN$_{4}$O$_{4}$S,,,,,,,,,
EMA401,C$_{32}$H$_{29}$NO$_{5}$,,,,,,,,,
Farampator,C$_{12}$H$_{13}$N$_{3}$O$_{2}$,,,,,,,,,
Dihydrokaempferide,C$_{16}$H$_{14}$O$_{6}$,302.27,g/mol,,,,,,,
Pyranine,C$_{16}$H$_{7}$Na$_{3}$O$_{10}$S$_{3}$,,,,,,,,,Soluble
Brassicasterol,C$_{28}$H$_{46}$O,,,150-151,$^{\circ}$C,,,,,
Anethole,C$_{10}$H$_{12}$O,,,20,$^{\circ}$C,0.998,g/cm$^{3}$,234,$^{\circ}$C,
Alloxan,C$_{4}$H$_{2}$N$_{2}$O$_{4}$,142.07,g/mol,256,$^{\circ}$C,1.639,g/cm$^{3}$,,,Freely soluble
PEPA (drug),,,,,,,,,,
Antimycin A,C$_{28}$H$_{40}$N$_{2}$O$_{9}$,548.63,g/mol,,,,,,,
Coumestrol,C$_{15}$H$_{8}$O$_{5}$,,,385,$^{\circ}$C,,,,,
Pallidol,C$_{28}$H$_{22}$O$_{6}$,454.47,g/mol,,,,,,,
Etiocholanolone,C$_{19}$H$_{30}$O$_{2}$,,,,,,,,,
Reproterol,C$_{18}$H$_{23}$N$_{5}$O$_{5}$,,,,,,,,,
Cadmium telluride,CdTe,240.01,g/mol,1041,$^{\circ}$C,,,1050,$^{\circ}$C,
Agomelatine,C$_{15}$H$_{17}$NO$_{2}$,,,,,,,,,
Imiquimod,C$_{14}$H$_{16}$N$_{4}$,,,,,,,,,
Rhodoxanthin,C$_{40}$H$_{50}$O$_{2}$,562.82,g/mol,219,$^{\circ}$C,,,,,
Iron(III) sulfate,Fe$_{2}$(SO$_{4}$)$_{3}$,399.88,g/mol,480,$^{\circ}$C,3.097,g/cm$^{3}$,,,slightly soluble
Anecortave,C$_{23}$H$_{30}$O$_{5}$,,,,,,,,,
Gliclazide,C$_{15}$H$_{21}$N$_{3}$O$_{3}$S,,,,,,,,,
Massoia lactone,C$_{10}$H$_{16}$O$_{2}$,168.24,g/mol,-95.2,$^{\circ}$C,0.982,g/cm$^{3}$,170-174,$^{\circ}$C,
Zirconium dioxide,ZrO$_{2}$,123.218,g/mol,2715,$^{\circ}$C,5.68,g/cm$^{3}$,4300,$^{\circ}$C,negligible
Musk xylene,C$_{12}$H$_{15}$N$_{3}$O$_{6}$,,,110,$^{\circ}$C,,,,,150
Ilepcimide,C$_{15}$H$_{17}$NO$_{3}$,,,,,,,,,
AM-679 (FLAP inhibitor),,,,,,,,,,
Tiludronic acid,,,,,,,,,,
Procyanidin B2,C$_{30}$H$_{26}$O$_{12}$,578.52,g/mol,,,,,,,
Uranium pentabromide,UBr$_{5}$,637.549,g/mol,,,,,,,
Gallium nitrate,Ga(NO$_{3}$)$_{3}$,255.7377,g/mol,,,,,,,
Cafaminol,C$_{11}$H$_{17}$N$_{5}$O$_{3}$,,,,,,,,,
Telaprevir,C$_{36}$H$_{53}$N$_{7}$O$_{6}$,,,,,,,,,
Metformin,C$_{24}$H$_{34}$N$_{4}$O$_{5}$S,,,,,,,,,
ERDRP-0519,C$_{23}$H$_{30}$F$_{3}$N$_{5}$O$_{4}$S,,,,,,,,,
Pedunculagin,C$_{34}$H$_{24}$O$_{22}$,784.54,g/mol,,,,,,,
Ledipasvir,C$_{49}$H$_{54}$F$_{2}$N$_{8}$O$_{6}$,,,,,,,,,
Siamenoside I,C$_{54}$H$_{92}$O$_{24}$,1125.29,g/mol,,,,,,,
Diethylaminosulfur trifluoride,C$_{4}$H$_{10}$F$_{3}$NS,,,,,1.220,g/cm$^{3}$,30-32,$^{\circ}$C,Reacts with water
Rhamnazin,C$_{17}$H$_{14}$O$_{7}$,330.29,g/mol,,,,,,,
L-759 633,,,,,,,,,,
Methylenedioxyphenethylamine,C$_{9}$H$_{11}$NO$_{2}$,,,,,,,,,
Nimetazepam,C$_{16}$H$_{13}$N$_{3}$O$_{3}$,,,,,,,,,
Tetrahydroxy-1 4-benzoquinone bisoxalate,C$_{10}$O$_{10}$,280.00,g/mol,,,,,,,
VIR-576,C$_{224}$H$_{322}$N$_{42}$O$_{51}$S$_{2}$,,,,,,,,,
Tetrakis(pyridine)silver(II) peroxydisulfate,C$_{20}$H$_{20}$N$_{4}$AgS$_{2}$O$_{8}$,,,,,,,,,insoluble
Ethyl oleate,C$_{20}$H$_{38}$O$_{2}$,310.51,g/mol,-32,$^{\circ}$C,0.87,g/cm$^{3}$,210,$^{\circ}$C,Insoluble
Mannoheptulose,C$_{7}$H$_{14}$O$_{7}$,,,,,,,,,
N-Oxalylglycine,C$_{4}$H$_{5}$NO$_{5}$,,,,,,,,,
WAY-317 538,,,,,,,,,,
Nicocodeine,C$_{24}$H$_{24}$N$_{2}$O$_{4}$,,,,,,,,,
Vanadium(II) oxide,VO,66.9409,g/mol,1789,$^{\circ}$C,5.758,g/cm$^{3}$,2627,$^{\circ}$C,
Phenyl-2-nitropropene,C$_{9}$H$_{9}$NO$_{2}$,,,64-66,$^{\circ}$C,,,,,
Perphenazine,C$_{21}$H$_{26}$ClN$_{3}$OS,,,,,,,,,
Sodium cyanide,NaCN,49.0072,g/mol,563.7,$^{\circ}$C,1.5955,g/cm$^{3}$,1496,$^{\circ}$C,48.15
Propylene glycol dinitrate,C$_{3}$H$_{6}$N$_{2}$O$_{6}$,,,-27.7,$^{\circ}$C,1.232,g/cm$^{3}$,121,$^{\circ}$C,0.1% (20$^{\circ}$C)
Ibudilast,C$_{14}$H$_{18}$N$_{2}$O,,,,,,,,,
Triethylaluminium,C$_{12}$H$_{30}$Al$_{2}$,,,-46,$^{\circ}$C,,,128,$^{\circ}$C,
Setastine,C$_{22}$H$_{28}$ClNO,,,,,,,,,
Deoxyadenosine triphosphate,C$_{10}$H$_{16}$N$_{5}$O$_{12}$P$_{3}$,,,,,,,,,
Rupatadine,C$_{26}$H$_{26}$ClN$_{3}$,,,,,,,,,
Polythiazyl,(SN)$_{x}$,,,,,,,,,
Trimethylsilyl trifluoromethanesulfonate,C$_{4}$H$_{9}$F$_{3}$O$_{3}$SSi,222.25,g/mol,,,,,,,
Fosinopril,C$_{30}$H$_{46}$NO$_{7}$P,,,,,,,,,
Voacangine,C$_{22}$H$_{28}$N$_{2}$O$_{3}$,,,136,$^{\circ}$C,,,,,
Endothion,C$_{9}$H$_{13}$O$_{6}$PS,,,,,0.932,g/cm$^{3}$,,,150
Ofatumumab,C$_{6480}$H$_{10022}$N$_{1742}$O$_{2020}$S$_{44}$,,,,,,,,,
Pingyangmycin,C$_{57}$H$_{89}$N$_{19}$O$_{21}$S$_{2}$,,,,,,,,,
Nicotine,C$_{10}$H$_{14}$N$_{2}$,,,,,,,,,
Trimethyl borate,C$_{3}$H$_{9}$O$_{3}$B,,,-34,$^{\circ}$C,,,68,$^{\circ}$C,decomposition