Property Melting Point,Property Density,Property Boiling Point,Property Solubility,Property Molar Mass,Name,formula
,,,,,Niperotidine,C$_{20}$H$_{26}$N$_{4}$O$_{5}$S
,,,,,Imidazolidine,C$_{3}$H$_{8}$N$_{2}$
,,,,,Thiolutin,C$_{8}$H$_{8}$N$_{2}$O$_{2}$S$_{2}$
,,,,,Tyrocidine,C$_{66}$H$_{87}$N$_{13}$O$_{13}$
,,,,,Valproate pivoxil,
,,,,,Cefcapene,C$_{17}$H$_{19}$N$_{5}$O$_{6}$S$_{2}$
,,,,,Dansyl amide,C$_{12}$H$_{14}$N$_{2}$O$_{2}$S
130,,,,465.631,Glycocholic acid,C$_{26}$H$_{43}$NO$_{6}$
,,,1.07g/ml,221.2,Potassium selenate,K$_{2}$SeO$_{4}$
81,,264,,,Ethylferrocene,C$_{12}$H$_{14}$Fe
-120.6,,2,,86.9054,Dichlorine monoxide,Cl$_{2}$O
,,,,,AM-938,C$_{27}$H$_{40}$O$_{4}$
-64,,155,Very low,,Alpha-Pinene,C$_{10}$H$_{16}$
,,,,,Tris(1 3-dichloro-2-propyl)phosphate,C$_{9}$H$_{15}$Cl$_{6}$O$_{4}$P
-38,,216,0.13,,Diethylaniline,C$_{10}$H$_{15}$N
-117,,20,Reacts,,Chlorine perchlorate,Cl$_{2}$O$_{4}$
,,,,252.35,Diphenylmethylpiperazine,C$_{17}$H$_{20}$N$_{2}$
,,,,398.44,S-Adenosyl methionine,C$_{15}$H$_{22}$N$_{6}$O$_{5}$S
,,,,,Thioperamide,C$_{15}$H$_{24}$N$_{4}$S
,2.66,,anhydrous,120.366,Magnesium sulfate,MgSO$_{4}$
,,,,268.2109,Iridium tetrafluoride,IrF$_{4}$
927,,,insoluble,476.65,Molybdenum(III) iodide,MoI$_{3}$
,,,,,Citatuzumab bogatox,
,,,,,A-349 821,
,,,,228.2,Urolithin A,C$_{13}$H$_{8}$O$_{4}$
,,,,,Dimeditiapramine,C$_{26}$H$_{37}$NO$_{8}$S$_{2}$
199,,,,352.39,Sudan III,C$_{22}$H$_{16}$N$_{4}$O
,,,,,Iodine-123,chemical_formula$^{123}$I$^{-}$
,,210-220,,260.76,Hexachlorobutadiene,C$_{4}$Cl$_{6}$
,,,,,Oxfendazole,C$_{15}$H$_{13}$N$_{3}$O$_{3}$S
,,,,372.28,Eckol,C$_{18}$H$_{12}$O$_{9}$
260,,,2.69,,Sodium oxalate,Na$_{2}$C$_{2}$O$_{4}$
240,1.494,,7.9,218.22,Calcium lactate,C$_{6}$H$_{10}$CaO$_{6}$
,,,,,Mersalyl,C$_{13}$H$_{18}$HgNO$_{6}$
,,,,,Otilonium bromide,
,,,,,Tolonidine,C$_{10}$H$_{12}$ClN$_{3}$
,,,reacts violently,25.313,Magnesium monohydride,MgH
,,,,,Nicorandil,C$_{8}$H$_{9}$N$_{3}$O$_{4}$
136-138,,,,,Salicylanilide,C$_{13}$H$_{11}$NO$_{2}$
,,,,,PSB-10,C$_{16}$H$_{14}$Cl$_{3}$N$_{5}$O
,,,Insoluble,361.71,Caesium titanate,Cs$_{2}$TiO$_{3}$
,,,,,Phenoxybenzamine,C$_{18}$H$_{22}$ClNO
,,,,,Libivirumab,C$_{6598}$H$_{10232}$N$_{1788}$O$_{2060}$S$_{46}$
75,,290,,,Phthalide,C$_{8}$H$_{6}$O$_{2}$
127,0.87,232,,,Trimethylhexamethylenediamine,C$_{9}$H$_{22}$N$_{2}$
,,,,,Befloxatone,C$_{15}$H$_{18}$F$_{3}$NO$_{5}$
,,,,,Cyclazodone,C$_{12}$H$_{12}$N$_{2}$O$_{2}$
,,,,,Ciclindole,C$_{14}$H$_{18}$N$_{2}$
,,,,,Mofezolac,C$_{19}$H$_{17}$NO$_{5}$
,,,,,SRT1460,C$_{26}$H$_{29}$N$_{5}$O$_{4}$S
,,,,,Dysidenin,C$_{17}$H$_{23}$Cl$_{6}$N$_{3}$O$_{2}$S
91.3,0.604,123,reacts,38.7,Beryllium borohydride,Be(BH$_{4}$)$_{2}$
,,,,,Almoxatone,C$_{18}$H$_{19}$ClN$_{2}$O$_{3}$
,,,,,Ergine,C$_{16}$H$_{17}$N$_{3}$O
280,2.435,,slightly soluble,,Iron(II) fumarate,C$_{4}$H$_{2}$FeO$_{4}$
,,,"Soluble in ethanol, methanol, DMF or DMSO",389.5,Roquefortine C,C$_{22}$H$_{23}$N$_{5}$O$_{2}$
197-203,1.36,,0.1,,DBDMH,C$_{5}$H$_{6}$Br$_{2}$N$_{2}$O$_{2}$
,,,,,Nemonoxacin,C$_{20}$H$_{25}$N$_{3}$O$_{4}$
,,,,,Histamine trifluoromethyl toluidide,C$_{19}$H$_{25}$F$_{3}$N$_{4}$O
,,,,330.50416,Docosapentaenoic acid,C$_{22}$H$_{34}$O$_{2}$
,,,,,MBBA,C$_{18}$H$_{21}$NO
308,1.283,,Insoluble,,Aurin,C$_{19}$H$_{14}$O$_{3}$
1780,,,soluble in concentrated acids,79.933,Titanium(II) sulfide,TiS
,,,,,Androsterone,C$_{19}$H$_{30}$O$_{2}$
,,,,,Fluocinolone acetonide,
,,,,,Idazoxan,C$_{11}$H$_{12}$N$_{2}$O$_{2}$
,,,,851.609,Acetoacetyl-CoA,C$_{25}$H$_{40}$N$_{7}$O$_{18}$P$_{3}$S
,,,,202.16,Xanthotoxol,C$_{11}$H$_{6}$O$_{4}$
,,,,,Romidepsin,C$_{24}$H$_{36}$N$_{4}$O$_{6}$S$_{2}$
,0.945,,,298.461,Ricinoleic acid,C$_{18}$H$_{34}$O$_{3}$
,,,,,Proscillaridin,C$_{30}$H$_{42}$O$_{8}$
450,,,,485.028,Caesium cadmium bromide,CsCdBr$_{3}$
625,,,25,143.95,Sodium monofluorophosphate,Na$_{2}$PFO$_{3}$
,,,,,Mesocarb,C$_{18}$H$_{18}$N$_{4}$O$_{2}$
,,,Very high water solubility around 2000,,Rifalazil,C$_{32}$H$_{44}$O$_{8}$
469,4.076,1171,151,133.85,Lithium iodide,LiI
,,,,,Pritumumab,C$_{6440}$H$_{9968}$N$_{1708}$O$_{2016}$S$_{42}$
,,,,364.911,Malachite green,C$_{23}$H$_{25}$ClN$_{2}$(chloride)
17,,,11,,Phenthoate,C$_{12}$H$_{17}$O$_{4}$PS$_{2}$
246-247,1.347,,Sparingly soluble,,Aspartame,C$_{14}$H$_{18}$N$_{2}$O$_{5}$
204-205,,,,280.36,Brefeldin A,C$_{16}$H$_{24}$O$_{4}$
,,,,,Pigment Red 149,C$_{40}$H$_{26}$N$_{2}$O$_{4}$
,,,,,Tocilizumab,C$_{6428}$H$_{9976}$N$_{1720}$O$_{2018}$S$_{42}$
,,,,,Ciprofibrate,C$_{13}$H$_{14}$Cl$_{2}$O$_{3}$
96,,,,75.08,Semicarbazide,H$_{2}$NNHC(O)NH$_{2}$
,,,,,Trospium chloride,
,,,,,Nifenazone,C$_{17}$H$_{16}$N$_{4}$O$_{2}$
,,,,382.43,Cresol Red,C$_{21}$H$_{17}$NaO$_{5}$S
,,,,,Clofoctol,C$_{21}$H$_{26}$Cl$_{2}$O
,,,,,Permanganate,MnO$^{4-}$
,,,,,Adrafinil,C$_{15}$H$_{15}$NO$_{3}$S
281,,600,see chart,184.918,Rubidium perchlorate,RbClO$_{4}$
250,,350,0.06,,Chlorothalonil,C$_{8}$Cl$_{4}$N$_{2}$
-17,1.768,203,miscible,100.46,Perchloric acid,HClO$_{4}$
,,,,,Meclizine,C$_{25}$H$_{27}$ClN$_{2}$
139,,,,164.247,S-Methylmethionine,C$_{6}$H$_{15}$NO$_{2}$S$^{+}$
,,,,,Ramipril,C$_{23}$H$_{32}$N$_{2}$O$_{5}$
169-172,,,,,FlAsH-EDT2,C$_{24}$H$_{18}$As$_{2}$O$_{5}$S$_{4}$
,,,,,Ribavirin,C$_{8}$H$_{12}$N$_{4}$O$_{5}$
,,,,,Trastuzumab,C$_{6470}$H$_{10012}$N$_{1726}$O$_{2013}$S$_{42}$
,,,,,Drostanolone,C$_{20}$H$_{32}$O$_{2}$
,,,,,Vofopitant,C$_{21}$H$_{23}$F$_{3}$N$_{6}$O
,,,,458.5,Mallotojaponin B,C$_{25}$H$_{30}$O$_{8}$
165,1.286,,,,Benzo(j)fluoranthene,C$_{20}$H$_{12}$
,,,,,Tenatoprazole,C$_{16}$H$_{18}$N$_{4}$O$_{3}$S
1087,6.29,,0.0032,303.26,Lead(II) sulfate,PbSO$_{4}$
-117.2,0.6912,4,,,Methylcyclopropane,C$_{4}$H$_{8}$
,,,,360.53,Propetandrol,C$_{23}$H$_{36}$O$_{3}$
75,,384.6,,,Farinomalein,C$_{10}$H$_{13}$NO$_{4}$
,,,,,Pirandamine,C$_{17}$H$_{23}$NO
,,,,,Dynorphin B,C$_{74}$H$_{115}$N$_{21}$O$_{17}$
,,,,,Omapatrilat,C$_{19}$H$_{24}$N$_{2}$O$_{4}$S$_{2}$
,,,,,Benralizumab,C$_{6492}$H$_{10060}$N$_{1724}$O$_{2028}$S$_{42}$
,,,,,Tioconazole,C$_{16}$H$_{13}$Cl$_{3}$N$_{2}$OS
235,,,,241.11,Diphenylalanine,C$_{15}$H$_{15}$NO$_{2}$
158,,535.7,low,,Anemonin,C$_{10}$H$_{8}$O$_{4}$
,,,,,Potassium fumarate,K$_{2}$C$_{4}$H$_{2}$O$_{4}$
40-41,,162-164,,,Olivetol,C$_{11}$H$_{16}$O$_{2}$
,,,,,Inotuzumab ozogamicin,
,,,,,Alefacept,C$_{2306}$H$_{3594}$N$_{610}$O$_{694}$S$_{26}$
,,,,436.545,Cipemastat,C$_{22}$H$_{36}$N$_{4}$O$_{5}$
,,,,,Almasilate,Al$_{2}$H$_{6}$MgO$_{7}$Si$^{+8}_{2}$
116,,,decomposes,185.01,Eschenmoser's salt,C$_{3}$H$_{8}$NI
,,,,,JWH-120,C$_{23}$H$_{21}$NO
,,,insoluble,,Paprika oleoresin,C$_{40}$H$_{56}$O$_{3}$(capsanthin)
-66,0.92,115,,,N-Methylmorpholine,C$_{5}$H$_{11}$NO
,,,,94.07,Methylammonium nitrate,CH$_{6}$N$_{2}$O$_{3}$
,,,,,Campestanol,C$_{28}$H$_{50}$O
,,,,,Coumermycin A1,
,,,,,Proflazepam,C$_{18}$H$_{16}$ClFN$_{2}$O$_{3}$
,,,,338.22,Hexahydroxydiphenic acid,C$_{14}$H$_{10}$O$_{10}$
,,,,,Atracurium besilate,
-8.5,2.666,60.4,decomposes,131.9168,Arsenic trifluoride,AsF$_{3}$
,,,,,Olpadronic acid,
,,,,,Thozalinone,C$_{11}$H$_{12}$N$_{2}$O$_{2}$
,,,,,Dihydroergotamine,C$_{33}$H$_{37}$N$_{5}$O$_{5}$
,,,,126.11,Hydroxyquinol,C$_{6}$H$_{6}$O$_{3}$
,,,,,Ripasudil,chemical_formulaC$_{15}$H$_{18}$FN$_{3}$O$_{2}$S
,,,,,Quinolizidine,C$_{9}$H$_{17}$N
,,,,,Apiin,C$_{26}$H$_{28}$O$_{14}$
,,,,,BW-723C86,C$_{16}$H$_{18}$N$_{2}$OS
,,,,,Echitamidine,C$_{20}$H$_{24}$N$_{2}$O$_{3}$
,,,,,Lerisetron,C$_{18}$H$_{20}$N$_{4}$
40.25,4.9,129.7,5.7,254.23,Osmium tetroxide,OsO$_{4}$
121-123,,204,"slightly soluble in ethanol, diethyl ether",,Diphenylmercury,C$_{12}$H$_{10}$Hg
-120.4,1.058,9.18,,,Methyl hypochlorite,CH$_{3}$ClO
,,,,,Taranabant,C$_{27}$H$_{25}$ClF$_{3}$N$_{3}$O$_{2}$
,,,,,Carbidopa,C$_{10}$H$_{14}$N$_{2}$O$_{4}$
,,,,,Gilutensin,C$_{17}$H$_{19}$N
,,,,,Trans-Diptoindonesin B,C$_{42}$H$_{32}$O$_{9}$
,1.72,,100,,Sodium nitroprusside,
,,,,,Gepefrine,C$_{9}$H$_{13}$NO
,,,,,Benzylbutylbarbiturate,C$_{15}$H$_{18}$N$_{2}$O$_{3}$
184.5,,,,,Glyphosate,C$_{3}$H$_{8}$NO$_{5}$P
,,,,,Ammonium pertechnetate,H$_{4}$NO$_{4}$Tc
,,,,~6000,PEDOT-TMA,C$_{6}$H$_{8}$O
,,,,,Urofollitropin,C$_{975}$H$_{1513}$N$_{267}$O$_{304}$S$_{26}$
,,,,,Naptumomab estafenatox,
,,,,,Ilaprazole,C$_{19}$H$_{18}$N$_{4}$O$_{2}$S
,,,,275.386,N-Octyl bicycloheptene dicarboximide,C$_{17}$H$_{25}$NO$_{2}$
,,,,308.29,Indicaxanthin,C$_{14}$H$_{16}$N$_{2}$O$_{6}$
,,,,,Dysprosium acetylacetonate,DyC$_{15}$H$_{21}$O$_{6}$
,,,,716.59,Theaflavin-3-gallate,C$_{36}$H$_{28}$O$_{16}$
,,,,,Homopipramol,C$_{24}$H$_{25}$N$_{3}$O
,,192,,,Tris(2-chloroethyl) phosphate,C$_{6}$H$_{12}$Cl$_{3}$O$_{4}$P
,,,,,Ziprasidone,C$_{21}$H$_{21}$ClN$_{4}$OS
,,,,,Neridronic acid,
,,,,,Idrocilamide,C$_{11}$H$_{13}$NO$_{2}$
,,,,,Valerenic acid,C$_{15}$H$_{22}$O$_{2}$
,,,,,Propylthiouracil,C$_{7}$H$_{10}$N$_{2}$OS
,,,,360.4,Lariciresinol,C$_{20}$H$_{24}$O$_{6}$
632,,,,258.323,Europium(III) chloride,EuCl$_{3}$
,,,,,JWH-302,C$_{22}$H$_{25}$NO$_{2}$
,,,,,Esomeprazole,C$_{17}$H$_{19}$N$_{3}$O$_{3}$S
,,,,,Temsirolimus,C$_{56}$H$_{87}$NO$_{16}$
290,,,,,Acedapsone,C$_{16}$H$_{16}$N$_{2}$O$_{4}$S
,,,,,Fanetizole,C$_{17}$H$_{16}$N$_{2}$S
,,,,,Trifluperidol,C$_{22}$H$_{23}$F$_{4}$NO$_{2}$
-111,,127,insoluble,,Allylcyclopentane,C$_{8}$H$_{14}$
,,,,720.714,Azadirachtin,C$_{35}$H$_{44}$O$_{16}$
24,,256,,,Methyl anthranilate,C$_{8}$H$_{9}$NO$_{2}$
-35,1.0228,140,,110.129,Benzyl fluoride,C$_{7}$H$_{7}$F
,,111.11,,279.378,EA-3148,C$_{12}$H$_{26}$NO$_{2}$PS
64-67,,,,,N N'-Di-n-butylthiourea,C$_{9}$H$_{20}$N$_{2}$S
,,,,456.14,Nysted reagent,C$_{6}$H$_{12}$Br$_{2}$OZn$_{3}$
,,,,,Miglitol,C$_{8}$H$_{17}$NO$_{5}$
,,,,,Xipamide,C$_{15}$H$_{15}$ClN$_{2}$O$_{4}$S
,,,,,Phosphonium,PH$^{+}_{4}$
300,,,,,Thorin (chemistry),C$_{16}$H$_{11}$AsN$_{2}$O$_{10}$S$_{2}$
,,,,,Bromobenzyl cyanide,C$_{8}$H$_{6}$BrN
,,,,,Fructose 1 6-bisphosphate,C$_{6}$H$_{14}$O$_{12}$P$_{2}$
,,,,,Aloxiprin,C$_{18}$H$_{15}$O$_{9}$
,,,,,Nilutamide,C$_{12}$H$_{10}$F$_{3}$N$_{3}$O$_{4}$
-43,0.98,244-252,<0.01,418.609,Diisononyl phthalate,C$_{26}$H$_{42}$O$_{4}$
,,,,,LR-5182,C$_{17}$H$_{23}$Cl$_{2}$N
,,,,,Clidinium bromide,
,,,,,Cefalonium,C$_{20}$H$_{18}$N$_{4}$O$_{5}$S$_{2}$
,,,,272.25,Glycinol (pterocarpan),C$_{15}$H$_{12}$O$_{5}$
-7,,285,,,Triethylene glycol,C$_{6}$O$_{4}$H$_{14}$
,,,,,Insulin detemir,
,,,,,HT-0712,C$_{25}$H$_{31}$NO$_{3}$
,,,,,BD1060,C$_{14}$H$_{20}$N$_{2}$Cl$_{2}$
,,,,,Carnitine,C$_{7}$H$_{15}$NO$_{3}$
,,,,,Igmesine,C$_{23}$H$_{29}$N
258,1.424,,167.2,,Alanine,C$_{3}$H$_{7}$NO$_{2}$
,,,,272.32,Thienamycin,C$_{11}$H$_{16}$N$_{2}$O$_{4}$S
124,,,,,Xanthydrol,C$_{13}$H$_{10}$O$_{2}$
,,,,,MOPS,C$_{7}$H$_{15}$NO$_{4}$S
,,,,328.4,Macelignan,C$_{20}$H$_{24}$O$_{4}$
,1.45,,1,,Azo violet,C$_{12}$H$_{9}$N$_{3}$O$_{4}$
,,,,,Metabutethamine,C$_{13}$H$_{20}$N$_{2}$O$_{2}$
,,,,,Saclofen,C$_{9}$H$_{12}$ClNO$_{3}$S
,,,,216.28,Acylfulvene,C$_{14}$H$_{16}$O$_{2}$
121.5,,,,384.64,Desmosterol,C$_{27}$H$_{44}$O
44,,53.6,,306.22,Iridium hexafluoride,IrF$_{6}$
,,,,335.31,Aspartylglucosamine,C$_{12}$H$_{21}$N$_{3}$O$_{8}$
,,,,,Hydroxylated lecithin,C$_{44}$H$_{88}$NO$_{10}$P
,,,,336.47,Hepoxilin,C$_{20}$H$_{32}$O$_{4}$
-117,1.602,-25,Insoluble,162.03,Hexafluoro-2-butyne,C$_{4}$F$_{6}$
,,,,,Ganaxolone,C$_{22}$H$_{36}$O$_{2}$
71-72,,80-84,decomposes,167.326,Lithium bis(trimethylsilyl)amide,C$_{6}$H$_{18}$LiNSi$_{2}$
,,,,,Butobarbital,C$_{10}$H$_{16}$N$_{2}$O$_{3}$
,,,,,RS-127445,C$_{17}$H$_{16}$FN$_{3}$
,,,,,Etamivan,C$_{12}$H$_{17}$NO$_{3}$
,,,,,Decarboxylated 8 5'-diferulic acid,C$_{19}$H$_{18}$O$_{6}$
174,,,,,Lufenuron,C$_{17}$H$_{8}$Cl$_{2}$F$_{8}$N$_{2}$O$_{3}$
,,,,,Cinacalcet,C$_{22}$H$_{22}$F$_{3}$N
,,,,,Cloridarol,C$_{15}$H$_{11}$ClO$_{2}$
,,,20,,Magnesium citrate,C$_{6}$H$_{6}$MgO$_{7}$
,,,,,Pirquinozol,C$_{11}$H$_{9}$N$_{3}$O$_{2}$
,,,,,Cefaclor,C$_{15}$H$_{14}$ClN$_{3}$O$_{4}$S
157-159,1.24,,,,Xanthohumol,C$_{21}$H$_{22}$O$_{5}$
,,,,784.54,Terflavin B,C$_{34}$H$_{24}$O$_{22}$
,,,,,Metenolone enanthate,
,,,,,Citicoline,C14H27N4O11P2charge+
224-228,,,organic solvents,578.62,Xantphos,C$_{39}$H$_{32}$OP$_{2}$
,,,,,Methylthioninium chloride,
,,,,,Calcium glubionate,
,,,,,Dichloramine,NCl$_{2}$H
292,1.8,,216.7,,Potassium acetate,C$_{2}$H$_{3}$O$_{2}$K
,,284-291,,,Trioctylphosphine,C$_{24}$H$_{51}$P
138-139,,,,174.24,Gramine,C$_{11}$H$_{14}$N$_{2}$
71-76,,,,,Tetrabutylammonium tribromide,C$_{16}$H$_{36}$Br$_{3}$N
,,,,96.1299,Disulfur dioxide,S$_{2}$O$_{2}$
,,,,334.5,Emopamil,C$_{23}$H$_{30}$N$_{2}$
120,,,slowly soluble,430.373,Calcium gluconate,C$_{12}$H$_{22}$CaO$_{14}$
79-83,,,Slightly,212.29,Diphenylethylenediamine,C$_{14}$H$_{16}$N$_{2}$
,,,,,Ezlopitant,C$_{31}$H$_{38}$N$_{2}$O
,,,,192.16,Scopoletin,C$_{10}$H$_{8}$O$_{4}$
,,,,,Seyferth-Gilbert homologation,C$_{5}$H$_{9}$N$_{2}$O$_{4}$P
163,1.39,,90,,Fluometuron,C$_{10}$H$_{11}$F$_{3}$N$_{2}$O
,,,,117.15,Isoindole,C$_{8}$H$_{7}$N
605-614,2.068,1382,68.29,,Lithium chloride,LiCl
-2.5,,220,,239.14,Sebacoyl chloride,C$_{10}$H$_{16}$Cl$_{2}$O$_{2}$
,,,,338.35,Wighteone,C$_{20}$H$_{18}$O$_{5}$
184,1.385,275-280,1,,P-Anisic acid,C$_{8}$H$_{8}$O$_{3}$
145,,,,388.31,Triphenylmethyl hexafluorophosphate,C$_{19}$H$_{15}$F$_{6}$P
,,,,,Benzatropine,C$_{21}$H$_{25}$NO
0,,251,,123.15,M-Anisidine,C$_{7}$H$_{9}$NO
203.5,,556.1,,358.475,Tetraphenyl butadiene,C$_{28}$H$_{22}$
,,,,272.25,Thunberginol C,C$_{15}$H$_{12}$O$_{5}$
,,,,,Gadofosveset,C$_{20}$H$_{24}$BrN$_{3}$O
,,,,,Trimethoxyamphetamine,C$_{21}$H$_{26}$ClNO
,,,,,Benazepril,C$_{24}$H$_{28}$N$_{2}$O$_{5}$
,,,,,Tadalafil,C$_{22}$H$_{19}$N$_{3}$O$_{4}$
,,,,,Reticuline,C$_{19}$H$_{23}$NO$_{4}$
,,,,,Baclofen,C$_{10}$H$_{12}$ClNO$_{2}$
,,,,,Melitracen,C$_{21}$H$_{25}$N
,,,,,MitoQ,C$_{38}$H$_{47}$O$_{7}$PS
,,,,,Radon difluoride,F$_{2}$Rn
,,,,,Melatonin,C$_{13}$H$_{16}$N$_{2}$O$_{2}$
260,,,,,Flubendazole,C$_{16}$H$_{12}$FN$_{3}$O$_{3}$
,,,,,Oxolinic acid,
,,,,,GW-405 833,
,,,,,Procymate,C$_{10}$H$_{19}$O$_{2}$
65,,,35,116.14,Ammonium sulfite,(NH$_{4}$)$_{2}$SO$_{3}$
,,,,,Sulbutiamine,C$_{32}$H$_{46}$N$_{8}$O$_{6}$S$_{2}$
,,,,,Broxyquinoline,C$_{9}$H$_{5}$Br$_{2}$NO
,,,,,Bezafibrate,C$_{19}$H$_{20}$ClNO$_{4}$
,,,,,BHF-177,C$_{19}$H$_{20}$F$_{3}$N$_{3}$
,,,,,VUF-8430,C$_{4}$H$_{11}$N$_{5}$S
-44,,84-85,low,,Fluorobenzene,C$_{6}$H$_{5}$F
2490,,3980,,397.932,Lutetium(III) oxide,Lu$_{2}$O$_{3}$
189,,,,,N-Methyl-D-aspartic acid,C$_{5}$H$_{9}$NO$_{4}$
,,,,,Iodous acid,HIO$_{2}$
,,,,,Treosulfan,C$_{6}$H$_{14}$O$_{8}$S$_{2}$
,,,,,Trioctylmethylammonium bis(trifluoromethylsulfonyl)imide,C$_{27}$N$_{2}$H$_{54}$O$_{4}$S$_{2}$F$_{6}$
,,,,233.29,Magnesium polonide,MgPo
,,,,327.37,Scoulerine,C$_{19}$H$_{21}$NO$_{4}$
,,,,,Metofoline,C$_{20}$H$_{24}$ClNO$_{2}$
,,,,,Irbesartan,C$_{25}$H$_{28}$N$_{6}$O
,,,,,Daptomycin,C$_{72}$H$_{101}$N$_{17}$O$_{26}$
500,11.14,,0.0053,,Mercury(II) oxide,HgO
~1600,2.51,,decomposes,182.18,Calcium phosphide,Ca$_{3}$P$_{2}$
,,,,,Tretinoin,C$_{20}$H$_{28}$O$_{2}$
-0.5,,62,,,Tert-Butylthiol,C$_{4}$H$_{10}$S
,,,,,Acetaminosalol,C$_{15}$NH$_{13}$O$_{4}$
,,,,,Hexylresorcinol,C$_{12}$H$_{18}$O$_{2}$
,,,,,Mepacrine,C$_{23}$H$_{30}$ClN$_{3}$O
,,,,310.09,Ribulose-1 5-bisphosphate,C$_{5}$H$_{12}$O$_{11}$P$_{2}$
,,,hydrolyses,,Methylidenecarbene,C$_{2}$H$_{2}$
,,decomposes at 220,1.02,166.912,Silver acetate,AgC$_{2}$H$_{3}$O$_{2}$
,,,,,Escitalopram,C$_{20}$H$_{21}$FN$_{2}$O
,,,,,RS-56812,C$_{18}$H$_{21}$N$_{3}$O$_{2}$
,,,,,Ombitasvir,C$_{50}$H$_{67}$N$_{7}$O$_{8}$
,,,,512.55,Adosterol,C$_{27}$H$_{45}$IO
,,,,,Eplerenone,C$_{24}$H$_{30}$O$_{6}$
,1.207,,,,Z-FA-FMK,C$_{21}$H$_{23}$FN$_{2}$O$_{4}$
,,,,,ADX-71149,C$_{19}$H$_{15}$ClFNO$_{2}$
,,,,,Amcinonide,C$_{28}$H$_{35}$FO$_{7}$
,,,,,Levoverbenone,C$_{10}$H$_{14}$O
,,,,,Fluoran,C$_{20}$H$_{12}$O$_{3}$
,,,,,Penitrem A,C$_{37}$H$_{44}$ClNO$_{6}$
,,,,,Rubidium-82 chloride,ClRb
-36,,139,0,180.56,Parachlorobenzotrifluoride,C$_{7}$H$_{4}$ClF$_{3}$
,,,,138.12,Protocatechuic aldehyde,C$_{7}$H$_{6}$O$_{3}$
,,,,461.381,Eriochrome Black T,C$_{20}$H$_{12}$N$_{3}$O$_{7}$SNa
-43,0.975,126-128,Insoluble,118.13,Diethyl carbonate,C$_{5}$H$_{10}$O$_{3}$
,,,,,Epanolol,C$_{20}$H$_{23}$N$_{3}$O$_{4}$
,,,,,Terconazole,C$_{26}$H$_{31}$Cl$_{2}$N$_{5}$O$_{3}$
,,,,,Isometheptene,C$_{9}$H$_{19}$N
,,,,,Oxcarbazepine,C$_{15}$H$_{12}$N$_{2}$O$_{2}$
,,,,,LPK-26,C$_{18}$H$_{24}$Cl$_{2}$N$_{2}$O
-9,1.02,153,1.5,,Cumene hydroperoxide,C$_{9}$H$_{12}$O$_{2}$
215,,,,,Phenamidine,C$_{14}$H$_{14}$N$_{4}$O
,,,,,Coutaric acid,C$_{13}$H$_{12}$O$_{8}$
,,,,314.3,Dihydropteroate,C$_{14}$H$_{14}$N$_{6}$O$_{3}$
73.5,,,decomposes,127.08,Nitrosylsulfuric acid,HNO$_{5}$S
-5,,220.8,0.05g/L,,Benzotrichloride,C$_{7}$H$_{5}$Cl$_{3}$
,,,,470.28,Valoneic acid dilactone,C$_{21}$H$_{10}$O$_{13}$
,,,,,Dazopride,C$_{15}$H$_{23}$ClN$_{4}$O$_{2}$
,,,,,Pteridine,C$_{6}$H$_{4}$N$_{4}$
,,,,,Thialbarbital,C$_{13}$H$_{16}$N$_{2}$O$_{2}$S
,,,,,Deoxyguanosine diphosphate,C$_{10}$H$_{15}$N$_{5}$O$_{10}$P$_{2}$
,,,,,Hydroxyproline,C$_{5}$H$_{9}$NO$_{3}$
,,,,,Estramustine,C$_{23}$H$_{31}$Cl$_{2}$NO$_{3}$
,,,,,Technetium (99mTc) medronic acid,
,,,,,Norbaeocystin,C$_{10}$H$_{13}$N$_{2}$O$_{4}$P
1905,,,,296.17,Thorium(IV) sulfide,ThS$_{2}$
-183,,-36.7,,188.02,Octafluoropropane,C$_{3}$F$_{8}$
,2.24,,Insoluble,,Tris(2 3-dibromopropyl) phosphate,C$_{9}$H$_{15}$Br$_{6}$O$_{4}$P
,,,,,Triphenylene,C$_{18}$H$_{12}$
,,,,540.51,Oleuropein,C$_{25}$H$_{32}$O$_{13}$
,,,Miscible,,Tert-Butylamine,C$_{4}$H$_{11}$N
,,,,162.22,Diethylene glycol diethyl ether,C$_{8}$H$_{18}$O$_{3}$
100,2.466,335,soluble,105.99,Sodium hyponitrite,Na$_{2}$N$_{2}$O$_{2}$
,,,,,O-Acetylserine,C$_{5}$H$_{9}$NO$_{4}$
,4.56,,,,Lithium tungstate,Li$_{2}$O$_{4}$W
,,,Insoluble,,Bixin,C$_{25}$H$_{30}$O$_{4}$
,,,,,Hydrogen cyanide,HCN
205,,,,,Nimbin (chemical),C$_{30}$H$_{36}$O$_{9}$
,,,,,Pentoxifylline,C$_{13}$H$_{18}$N$_{4}$O$_{3}$
,,,,,AR-231 453,
146-148,1.412,200,0.572,,Anthranilic acid,C$_{7}$H$_{7}$NO$_{2}$
,,,,,Dobutamine,C$_{18}$H$_{23}$NO$_{3}$
,,,,,Asenapine,C$_{17}$H$_{16}$ClNO
,,,,,Dexibuprofen,C$_{13}$H$_{18}$O$_{2}$
,,,,295.29,Indican,C$_{14}$H$_{17}$NO$_{6}$
,,,,,Viloxazine,C$_{13}$H$_{19}$NO$_{3}$
,1.01,180,soluble in ethanol and oils,146.28,Diallyl disulfide,C$_{6}$H$_{10}$S$_{2}$
125,1.31,,0.1% (20$^{\circ}$C),214.28,Metribuzin,C$_{8}$H$_{14}$N$_{4}$OS
1625,2.615,,insoluble,,Lithium aluminate,AlLiO$_{2}$
100,2.49,100-105,anhydrous: 84.03,182.943,Cobalt(II) nitrate,Co(NO$_{3}$)$_{2}$
,,,,,Ciclopirox,C$_{12}$H$_{17}$NO$_{2}$
,,,,,Enocitabine,C$_{31}$H$_{55}$N$_{3}$O$_{6}$
,,,,,Ampelopsin B,C$_{28}$H$_{22}$O$_{6}$
161,0.18,,,132.07,Oxaloacetic acid,C$_{4}$H$_{4}$O$_{5}$
,,,,454.47,Cyphostemmin B,C$_{28}$H$_{22}$O$_{6}$
119-120,,,,,Dihydroxymalonic acid,C$_{3}$H$_{4}$O$_{6}$
-19,,139-140,,86.1323,Cyclopentanol,C$_{5}$H$_{10}$O
222,,,,52.9465,Lithium nitrite,LiNO$_{2}$
,,,,,Tripamide,C$_{16}$H$_{20}$ClN$_{3}$O$_{3}$S
,,,,130.144,Dithionous acid,H$_{2}$S$_{2}$O$_{4}$
586,3.46,800,,221.18,Indium(III) chloride,InCl$_{3}$
,,,,,Dapagliflozin,C$_{21}$H$_{25}$ClO$_{6}$
,,,,,Secobarbital,C$_{12}$H$_{18}$N$_{2}$O$_{3}$
47-58,1.17,330,0.275,,Pendimethalin,C$_{13}$H$_{19}$N$_{3}$O$_{4}$
,,,,,Tetrahydrocannabivarin,C$_{19}$H$_{26}$O$_{2}$
,,,,,UK-414 495,
,1.175,,2,,Fenvalerate,C$_{25}$H$_{22}$ClNO$_{3}$
200,,,,,Iron(III) bromide,FeBr$_{3}$
,,,,,Nimesulide,C$_{13}$H$_{12}$N$_{2}$O$_{5}$S
,,,,326.48,Hydroxystenozole,C$_{21}$H$_{30}$N$_{2}$O
,,,,,Mead acid,C$_{20}$H$_{34}$O$_{2}$
,,,,,Imexon,C$_{4}$H$_{5}$N$_{3}$O
,,,,,Androstenedione,C$_{19}$H$_{26}$O$_{2}$
,,,,,JNJ-7777120,C$_{14}$H$_{16}$ClN$_{3}$O
,,,,,Uridine triphosphate,C$_{9}$H$_{15}$N$_{2}$O$_{15}$P$_{3}$
,,,,,Paromomycin,C$_{23}$H$_{47}$N$_{5}$O$_{18}$S
,,,,,ICI-199 441,
,,,,,Cycloheptanone,C$_{7}$H$_{12}$O
,,,,,Naphazoline,C$_{14}$H$_{14}$N$_{2}$
2233,7.24,3760,0.0003,336.48,Neodymium(III) oxide,Nd$_{2}$O$_{3}$
,,,,,Pravadoline,C$_{23}$H$_{26}$N$_{2}$O$_{3}$
,,,,,Metrizamide,C$_{18}$H$_{22}$I$_{3}$N$_{3}$O$_{8}$
,,,,,Cefazedone,C$_{18}$H$_{15}$Cl$_{2}$N$_{5}$O$_{5}$S$_{3}$
69-71,1.85,400,28.9,368.35,Potassium ferrocyanide,C$_{6}$N$_{6}$FeK$_{4}$
,,,,,Tianeptine,C$_{21}$H$_{25}$ClN$_{2}$O$_{4}$S
104.5,,,,287.209,Iridium(V) fluoride,IrF$_{5}$
,,,,578.52,Procyanidin B6,C$_{30}$H$_{26}$O$_{12}$
,,,,,Moperone,C$_{22}$H$_{26}$FNO$_{2}$
,1.404,62,,,Flurothyl,C$_{4}$H$_{4}$F$_{6}$O
,,,,,Propylketobemidone,C$_{16}$H$_{23}$NO$_{2}$