Property Melting Point,Property Density,Property Boiling Point,Property Solubility,Property Molar Mass,Name,formula
-38.9,0.0106,-37.6,decomposes,241.59,Tellurium hexafluoride,TeF$_{6}$
,,,,,Rizatriptan,C$_{15}$H$_{19}$N$_{5}$
,,,,,Pizotifen,C$_{19}$H$_{21}$NS
,,,,,Griseofulvin,C$_{17}$H$_{17}$ClO$_{6}$
,,,,,Brunfelsamidine,C$_{5}$H$_{7}$N$_{3}$
,1.1564,195-198,,142.11,Dimethyl acetylenedicarboxylate,C$_{6}$H$_{6}$O$_{4}$
,,,,,SYBR Green I,C$_{32}$H$_{37}$N$_{4}$S$^{+}$
,,,,,Sodium valproate,
,,,,,Dimaprit,C$_{6}$H$_{15}$N$_{3}$S
,,,,,Methyllycaconitine,C$_{37}$H$_{50}$N$_{2}$O$_{10}$
143-144,,,10,,Swainsonine,C$_{8}$H$_{15}$NO$_{3}$
,1.072,100-101,,,Methyl cyanoformate,C$_{3}$H$_{3}$NO$_{2}$
-77,,66,reaction in water,,Methyltrichlorosilane,CH$_{3}$Cl$_{3}$Si
151,1.18,313.3,320,,Carbofuran,C$_{12}$H$_{15}$NO$_{3}$
238.7,2.37,,24.5,78.103,Potassium bifluoride,HF$_{2}$K
,,,,,Dipipanone,C$_{24}$H$_{31}$NO
,,,,,GFT505,C$_{22}$H$_{24}$O$_{4}$S
,,,179,,Oxazepam,C$_{15}$H$_{11}$N$_{2}$O$_{2}$Cl
,,,,,Phenazone,C$_{11}$H$_{12}$N$_{2}$O
,,,,,Furanyl-fentanyl,C$_{24}$H$_{26}$N$_{2}$O$_{2}$
,$\alpha$: 0.914,,,,Selinene,C$_{15}$H$_{24}$
,,,0.007,,Octane,C$_{8}$H$_{18}$
,,,,506.33,Nonahydroxytriphenic acid,C$_{21}$H$_{14}$O$_{15}$
,,,,176.21,Cladinose,C$_{8}$H$_{16}$O$_{4}$
,,,,498.39,Tetraphlorethol C,C$_{24}$H$_{18}$O$_{12}$
,,,,,Gantenerumab,C$_{6496}$H$_{10072}$N$_{1740}$O$_{2024}$S$_{42}$
,,162,"Benzene, Toluene, diisopropyl ether",,Diethylaluminium cyanide,C$_{4}$H$_{10}$AlCN
,,,,,Fluo-4,C$_{36}$H$_{30}$F$_{2}$N$_{2}$O$_{13}$
decomposes above-28,,,,183.9,Iodine trifluoride,IF$_{3}$
131-134,1.45,309,,126.11,Pyrogallol,C$_{6}$H$_{6}$O$_{3}$
190,,,,,Muscazone,C$_{5}$H$_{6}$N$_{2}$O$_{4}$
,,,,,Histapyrrodine,C$_{19}$H$_{24}$N$_{2}$
,,,,267.36,EEE (psychedelic),C$_{15}$H$_{25}$NO$_{3}$
,,,,,Olprinone,C$_{14}$H$_{10}$N$_{4}$O
,,,,,Tautomycin,C$_{41}$H$_{66}$O$_{13}$
,,,,,Benzothiazine,C$_{8}$H$_{7}$NS
56,,192,,286.69,Phosphoryl bromide,POBr$_{3}$
,,,,,Ethyl loflazepate,
,,,,,Opipramol,C$_{23}$H$_{29}$N$_{3}$O
-10,,100,,,Myristamine oxide,C$_{16}$H$_{35}$NO
,,,,517.45,Vitisin B (pyranoanthocyanin),C$_{25}$H$_{25}$O$^{+}_{12}$
,,,,258.27,Isorhapontigenin,C$_{15}$H$_{14}$O$_{4}$
,,,,,Amphetamine,C$_{9}$H$_{13}$N
,,,,,Dextromethorphan,C$_{18}$H$_{25}$NO
,,,,586.678,Phycoerythrobilin,C$_{33}$H$_{38}$N$_{4}$O$_{6}$
,,,,211.26,BOHD (psychedelic),C$_{11}$H$_{17}$NO$_{3}$
70-73,1.02,185-189,,86.09,Crotonic acid,C$_{4}$H$_{6}$O$_{2}$
,,,,,Nifurtoinol,C$_{9}$H$_{8}$N$_{4}$O$_{6}$
167.2,,,,,Uridine,C$_{9}$H$_{12}$N$_{2}$O$_{6}$
,,,,,RTI-55,C$_{16}$H$_{20}$INO$_{2}$
169,,620.7,,404.5,K-Strophanthidin,C$_{23}$H$_{32}$O$_{6}$
,,,,,Azapropazone,C$_{16}$H$_{20}$N$_{4}$O$_{2}$
,,,,,Para-Methoxyphenylpiperazine,C$_{11}$H$_{16}$N$_{2}$O
,,,,284.26,Calycosin,C$_{16}$H$_{12}$O$_{5}$
150,,,,,Homogentisic acid,C$_{8}$H$_{8}$O$_{4}$
,,,,,Seletracetam,C$_{10}$H$_{14}$F$_{2}$N$_{2}$O
-15.4,,72.4,miscible,114.02,Trifluoroacetic acid,C$_{2}$HF$_{3}$O$_{2}$
,0.9745,,,,Acetyl cyanide,C$_{3}$H$_{3}$NO
,,,,,Yuanhunine,C$_{21}$H$_{25}$NO$_{4}$
,,,,,Isoniazid,C$_{6}$H$_{7}$N$_{3}$O
,,,,,Metolazone,C$_{16}$H$_{16}$ClN$_{3}$O$_{3}$S
,,,,295.29,Prunasin,C$_{14}$H$_{17}$NO$_{6}$
,,,,384.64,Zymosterol,C$_{27}$H$_{44}$O
,,,,354.76,Manganese(II) phosphate,Mn$_{3}$(PO$_{4}$)$_{2}$
300,3.865,,soluble,213.8918,Sodium periodate,NaIO$_{4}$
,,,,239.314,EMM (psychedelic),C$_{13}$H$_{21}$NO$_{3}$
,,,,126.24,Nonene,C$_{9}$H$_{18}$
,,,,272.25,Thunberginol G,C$_{15}$H$_{12}$O$_{5}$
,,,,,Hemicholinium-3,C$_{24}$H$_{34}$N$_{2}$O$^{+2}_{4}$
,,,,,Luteolin,C$_{15}$H$_{10}$O$_{6}$
,,,,352.465,Prostaglandin H2,C$_{20}$H$_{32}$O$_{5}$
,,,,,Ceftobiprole,C$_{20}$H$_{22}$N$_{8}$O$_{6}$S$_{2}$
2410,7.91,,,,Terbium(III) oxide,Tb$_{2}$O$_{3}$
186,,,3.4,641.7,Hexabromocyclododecane,C$_{12}$H$_{18}$Br$_{6}$
,,,,276.58,Mercury(IV) fluoride,HgF$_{4}$
,,,,,Betrixaban,C$_{23}$H$_{22}$ClN$_{5}$O$_{3}$
,,,,,Diminazen,C$_{14}$H$_{15}$N$_{7}$
,,,,,Hexadimethrine bromide,"(C$_{13}$H$_{30}$Br$_{2}$N$_{2}$)$_{n}$,linearform"
244-246,,,,222.3,Sodium laurate,C$_{12}$H$_{23}$O$_{2}$Na
,,,,,Dipyridamole,C$_{24}$H$_{40}$N$_{8}$O$_{4}$
568,,844,56.3,272.22,Cadmium bromide,CdBr$_{2}$
110-113,1.01,192-193,Insoluble,182.17,Syringaldehyde,C$_{9}$H$_{10}$O$_{4}$
,,,,,Thiosulfurous acid,HS-S(O)-OH
,,,,,SL-164,C$_{16}$H$_{12}$Cl$_{2}$N$_{2}$O
,,,,,Trovafloxacin,C$_{20}$H$_{15}$F$_{3}$N$_{4}$O$_{3}$
-54.1,,69.4,hydrolyzes,,Sulfuryl chloride,SO$_{2}$Cl$_{2}$
,,,,,Evans blue,C$_{34}$H$_{24}$N$_{6}$Na$_{4}$O$_{14}$S$_{4}$
,,,,,KML-010,C$_{18}$H$_{24}$FN$_{3}$O$_{2}$
,,,,,Enallylpropymal,C$_{11}$H$_{16}$N$_{2}$O$_{3}$
,,,,,Levonantradol,C$_{27}$H$_{35}$NO$_{4}$
,,,,,Nelivaptan,C$_{30}$H$_{32}$ClN$_{3}$O$_{8}$S
,,,,118.13,Isobenzofuran,C$_{8}$H$_{6}$O
,,,,,Glimepiride,C$_{24}$H$_{34}$N$_{4}$O$_{5}$S
500,8.9,,,,Polonium dioxide,PoO$_{2}$
,,,,,Encainide,C$_{22}$H$_{28}$N$_{2}$O$_{2}$
176-177,1.75,385,0.02%,380.91,Dieldrin,C$_{12}$H$_{8}$Cl$_{6}$O
,,,,,Zanolimumab,C$_{6742}$H$_{9972}$N$_{1732}$O$_{2004}$S$_{40}$
,,,,251.321,Methallylescaline,C$_{14}$H$_{21}$NO$_{3}$
,,,,,Sultopride,C$_{17}$H$_{26}$N$_{2}$O$_{4}$S
decomposes at 710,3.1,,85,,Sodium selenite,Na$_{2}$SeO$_{3}$
,,,,,Oregovomab,C$_{17}$H$_{27}$NO$_{3}$
,,,,,Otenabant,C$_{25}$H$_{25}$Cl$_{2}$N$_{7}$O
,,,,,Phanquinone,C$_{12}$H$_{6}$N$_{2}$O$_{2}$
-52,,,miscible,,Monomethylhydrazine,CH$_{6}$N$_{2}$
,,,,,Flurithromycin,C$_{37}$H$_{66}$FNO$_{13}$
,,,,,Gymnochrome E,C$_{36}$H$_{26}$Br$_{2}$O$_{10}$
,,,,,Penfluridol,C$_{28}$H$_{27}$ClF$_{5}$NO
,,,,,Alsactide,C$_{99}$H$_{155}$N$_{29}$O$_{21}$S
,,,,,Ticarcillin,C$_{15}$H$_{16}$N$_{2}$O$_{6}$S$_{2}$
,,,,348.1855,Xenon hexafluororhodate,XeRhF$_{6}$
,,,,288.25,Okanin,C$_{15}$H$_{12}$O$_{6}$
,,,,,Ampicillin,C$_{16}$H$_{19}$N$_{3}$O$_{4}$S
-35.9,,0,,,Xenon tetroxide,XeO$_{4}$
275,3.52,346.7,,396.61,Tungsten hexachloride,WCl$_{6}$
72,,108,,,Malondialdehyde,C$_{3}$H$_{4}$O$_{2}$
,,,,,Prednicarbate,C$_{27}$H$_{36}$O$_{8}$
224-225,1.088,424,,,Tetraphenylethylene,C$_{26}$H$_{20}$
630,5.15,,19.3,121.9295,Sodium metavanadate,NaVO$_{3}$
,,,,,Tibezonium iodide,
,,,,,Quinagolide,C$_{20}$H$_{33}$N$_{3}$O$_{3}$S
,,,,,Mebicar,C$_{8}$H$_{14}$N$_{4}$O$_{2}$
,0.99,204-207,,,Fomepizole,C$_{4}$H$_{6}$N$_{2}$
,,,extremely low,,Cereulide,C$_{57}$H$_{96}$N$_{6}$O$_{18}$
486,2.806,,557,207.319,Silver perchlorate,AgClO$_{4}$
30,,120-125,insoluble,,Temefos,C$_{16}$H$_{20}$O$_{6}$P$_{2}$S$_{3}$
,,,,,Anatabine,C$_{10}$H$_{12}$N$_{2}$
-21,1.453,103,Insoluble,195.9,Iron pentacarbonyl,Fe(CO)$_{5}$
214,,,,,Purine,C$_{5}$H$_{4}$N$_{4}$
,,,,,Carbachol,C$_{6}$H$_{15}$N$_{2}$O$_{2}$Cl
,,,,,Nobiletin,C$_{21}$H$_{22}$O$_{8}$
,,,,180.21,Benzo(c)cinnoline,C$_{12}$H$_{8}$N$_{2}$
,,,,,BU-48,C$_{27}$H$_{33}$NO$_{4}$
56-57,1.824,,,401.3931,Halomon,C$_{10}$H$_{15}$Br$_{2}$Cl$_{3}$
-94,,56,,,Deuterated acetone,C$^{2}_{3}$H$_{6}$O
,,,,,Cilnidipine,C$_{27}$H$_{28}$N$_{2}$O$_{7}$
,,,,,U-69 593,
,,,,,Bifeprunox,C$_{24}$H$_{23}$N$_{3}$O$_{2}$
,,,,,Tungsten(III) oxide,W$_{2}$O$_{3}$
2,,86-91,water,252.953,Vanadyl nitrate,VO(NO$_{3}$)$_{3}$
,,,,,Dauricine,C$_{38}$H$_{44}$N$_{2}$O$_{6}$
,,,,,Equilin,C$_{18}$H$_{20}$O$_{2}$
,,,,,Dimethylallyl pyrophosphate,C$_{5}$H$_{12}$O$_{7}$P$_{2}$
100,,,4.6,,Silver sulfite,Ag$_{2}$SO$_{3}$
,,,,,LP-12,C$_{32}$H$_{39}$N$_{3}$O
,,,,209.93,Molybdenum hexafluoride,MoF$_{6}$
1512,4.6,,insoluble,265.81,Niobium pentoxide,Nb$_{2}$O$_{5}$
,,,,,Mescaline,C$_{11}$H$_{17}$NO$_{3}$
,4.29,,very soluble,,Potassium tetraiodomercurate(II),K$_{2}$HgI$_{4}$
200,,,6.7,,Calcium oxalate,CaC$_{2}$O$_{4}$
197.8,,,600,,Alpha-Naphthylthiourea,C$_{11}$H$_{10}$N$_{2}$S
228-230,,,Insoluble,,Brodifacoum,C$_{31}$H$_{23}$BrO$_{3}$
135,,,Insoluble,726.19,Chloro(cyclopentadienyl)bis(triphenylphosphine)ruthenium,C$_{41}$H$_{35}$ClP$_{2}$Ru
,,,,,Huperzine A,
,,,,,Tranexamic acid,
,,,,,Ro4-1539,C$_{22}$H$_{27}$NO$_{2}$
,,,,,Diphenylpyraline,C$_{19}$H$_{23}$NO
,,,,,PNU-120 596,
,,,,,Propoxycaine,C$_{16}$H$_{26}$N$_{2}$O$_{3}$
,1.093,341.125,,232.146332,Velleral,C$_{15}$H$_{20}$O$_{2}$
,4.44,,0.0011,217.391,Barium sulfite,BaSO$_{3}$
-99.5,,-8.4,,148.95,Selenoyl fluoride,SeO$_{2}$F$_{2}$
2400,12.7,,none,207.83,Rhenium diboride,ReB$_{2}$
150-152,1.08,180,2,,Benzilic acid,C$_{14}$H$_{12}$O$_{3}$
,,,,,Drotrecogin alfa,
71,,,,,Cythioate,C$_{8}$H$_{12}$NO$_{5}$PS$_{2}$
,,,,120.7437,Gallium(III) hydroxide,Ga(OH)$_{3}$
,,,,,Cefmetazole,C$_{15}$H$_{17}$N$_{7}$O$_{5}$S$_{3}$
,,,,,Lumiliximab,C$_{2115}$H$_{3252}$N$_{556}$O$_{673}$S$_{16}$
,,,,,Methylenedioxyhydroxyamphetamine,C$_{10}$H$_{13}$NO$_{3}$
,,,,,KM-233,C$_{25}$H$_{30}$O$_{2}$
,,,Soluble as sodium salt,,Phosphoramidon,C$_{23}$H$_{34}$N$_{3}$O$_{10}$P
,,,,223.3126,Beatrice (psychedelic),C$_{13}$H$_{21}$NO$_{2}$
204-206,,,,,Amoscanate,C$_{13}$H$_{9}$N$_{3}$O$_{2}$S
-99,,118,Slightly soluble 0.63-0.7g/100g at 20,116.16,Isobutyl acetate,C$_{6}$H$_{12}$O$_{2}$
,,,,,Benzofuranylpropylaminopentane,C$_{16}$H$_{23}$NO
,,,soluble in water,632.55,Ammonium cerium(IV) sulfate,H$_{20}$N$_{4}$S$_{4}$O$_{18}$Ce
646.85,,1304,152,212.3723,Rubidium iodide,RbI
,,,,,A-836 339,
,,,,,DOV-102 677,
,,,,360.31,Centaureidin,C$_{18}$H$_{16}$O$_{8}$
,,,,,Naltrexone,C$_{20}$H$_{23}$NO$_{4}$
,,,,381.36,Metsulfuron-methyl,C$_{14}$H$_{15}$N$_{5}$O$_{6}$S
,,,,,Perchlorate,ClO$^{-}_{4}$
,,,,,Diacetyldihydromorphine,C$_{21}$H$_{25}$NO$_{5}$
,,190-191,Insoluble,,Allyl hexanoate,C$_{9}$H$_{16}$O$_{2}$
,1.668,,Exists only in solution,62.03,Carbonic acid,H$_{2}$CO$_{3}$
300,,500,0.014,,Arsenic pentasulfide,As$_{2}$S$_{5}$
,,91,N/A,83.13,Tert-Butyl isocyanide,C$_{5}$H$_{9}$N
,,,,559.316,Adenosine diphosphate ribose,C$_{15}$H$_{23}$N$_{5}$O$_{14}$P$_{2}$
320,,256.1,50,129.16,Cycloleucine,C$_{6}$H$_{11}$NO$_{2}$
1020,,1280,,,Erbium(III) iodide,ErI$_{3}$
,,,,,N-Ethylnorketamine,C$_{14}$H$_{18}$ClNO
,,,,,Etofibrate,C$_{18}$H$_{18}$ClNO$_{5}$
,0.9052,,,204.36,Caryophyllene,C$_{15}$H$_{24}$
3.5,1.65,200,Reacts,166.901,Dichlorine hexoxide,Cl$_{2}$O$_{6}$
,,,,,Columnidin,C$_{15}$H$_{11}$O$_{6}$
42.5,,,,139.195,Tropinone,C$_{8}$H$_{13}$NO
,,,,,AB-005,C$_{23}$H$_{32}$N$_{2}$O
,,,,,Pomalidomide,C$_{13}$H$_{11}$N$_{3}$O$_{4}$
824,3.98,1490,heptahydrate: very soluble,275.292,Thulium(III) chloride,TmCl$_{3}$
,,,,,Methylergometrine,C$_{20}$H$_{25}$N$_{3}$O$_{2}$
,,,,73.0938,Oxazolidine,C$_{3}$H$_{7}$NO
,0.902-0.905,,Insoluble,,Polyprenol,H-(C$_{5}$H$_{8}$)$_{n}$-OH
,,,,442.586,Ascorbyl stearate,C$_{24}$H$_{42}$O$_{7}$
,,,,,Ipriflavone,C$_{18}$H$_{16}$O$_{3}$
,,,,498.7,Taurodeoxycholic acid,C$_{26}$H$_{45}$NO$_{5}$S
,0.974,,,,Monoethanolamine oleate,
,,,,,Cobicistat,C$_{40}$H$_{53}$N$_{7}$O$_{5}$S$_{2}$
,,,,,Azaloxan,C$_{18}$H$_{25}$N$_{3}$O$_{3}$
203,,,H$_{2}$O: 0.3,,Aconitine,C$_{34}$H$_{47}$NO
,,,,,Diproteverine,C$_{26}$H$_{35}$NO$_{4}$
,,,,241.35,TOMSO,C$_{12}$H$_{19}$NO$_{2}$S
105,,,Soluble,163,Vanadyl sulfate,VOSO$_{4}$
,,,,291.32,Hawkinsin,C$_{11}$H$_{17}$NO$_{6}$S
190,1.8,,40.4,,Ammonium dihydrogen phosphate,H$_{6}$NO$_{4}$P
,,,,,Ezetimibe,C$_{24}$H$_{21}$F$_{2}$NO$_{3}$
138-140,,,,426.71,Lanosterol,C$_{30}$H$_{50}$O
,,,,253.23,Lodenosine,C$_{10}$H$_{12}$FN$_{5}$O$_{2}$
,,,,,Meprednisone,C$_{22}$H$_{28}$O$_{5}$
12,,240,,,Ethylammonium nitrate,C$_{2}$NH$_{8}$NO$_{3}$
,,,,,Potassium dimanganate(III),K$_{6}$Mn$_{2}$O$_{6}$
,,,,306.267,Gallocatechol,C$_{15}$H$_{14}$O$_{7}$
125-126,,,,,Isomethadol,C$_{21}$H$_{29}$NO
,,,,,Bromo-DragonFLY,C$_{13}$H$_{12}$BrNO$_{2}$
,,,0.3,,Benzaldehyde,C$_{7}$H$_{6}$O
,2.36,,Soluble,199.001,Potassium argentocyanide,KAg(CN)$_{2}$
,,,,,Chaconine,C$_{45}$H$_{73}$NO$_{14}$
272,,,,320.44,Tetraphenylmethane,C$_{25}$H$_{20}$
,,,,,Tocofersolan,(C$_{2}$H$_{4}$O)$_{n}$C$_{33}$H$_{54}$O$_{5}$
,,,,,Verucerfont,C$_{22}$H$_{26}$N$_{6}$O$_{2}$
435,1.458,,10.2,303.91,Sodium ferrocyanide,Na$_{4}$Fe(CN)$_{6}$
-155.6,,-100.1,,54.45,Chlorine monofluoride,ClF
,,,,360.31,Jaceidin,C$_{18}$H$_{16}$O$_{8}$
-84,0.81,77,,,Acrylonitrile,C$_{3}$H$_{3}$N
-126.6,1.342,31.8,hydrolysis,135.45,Trichlorosilane,HCl$_{3}$Si
,,,,,Tetrahydroxyborate,H$_{4}$BO$^{-}_{4}$
,,,,,Amedalin,C$_{19}$H$_{22}$N$_{2}$O
,,,,596.27,Ferroin,C$_{36}$H$_{24}$FeN$^{2+}_{6}$
,,,,,Dimethoxymethane,C$_{3}$H$_{8}$O$_{2}$
,,,,,Albaconazole,C$_{20}$H$_{16}$ClF$_{2}$N$_{5}$O$_{2}$
490-560,,906,insoluble,,Devarda's alloy,C$_{5}$H$_{5}$NHClCrO$_{3}$
156,,,30,,Copper gluconate,
-166,,-72.4,Reacts,,Nitrosyl fluoride,NOF
,,,,,Rimonabant,C$_{22}$H$_{21}$Cl$_{3}$N$_{4}$O
,,,,,Brecanavir,C$_{33}$H$_{41}$N$_{3}$O$_{10}$S$_{2}$
-32,,188,Reacts,126.13,Dimethyl sulfate,C$_{2}$H$_{6}$O$_{4}$S
,1.345,,,981.17,Ziziphin,C$_{51}$H$_{80}$O$_{18}$
525,7.15,383,0.2,472.09,Mercury(I) chloride,Hg$_{2}$Cl$_{2}$
,,,,102.06,Sulfuryl fluoride,SO$_{2}$F$_{2}$
162-164,,,Slightly soluble,,Neocuproine,C$_{14}$H$_{12}$N$_{2}$
,,,,,Difluocortolone,C$_{22}$H$_{28}$F$_{2}$O$_{4}$
,,,24(2),445.03,Gallium maltolate,Ga(C$_{6}$H$_{5}$O$_{3}$)$_{3}$
-151.5,,-101.8,slow hydrolysis,87.968971,Phosphorus trifluoride,PF$_{3}$
60.2,2.81,118,g/100g H2O: 98,394.04,Uranyl nitrate,UO$_{2}$(NO$_{3}$)$_{2}$
,,,,,Fulvestrant,C$_{32}$H$_{47}$F$_{5}$O$_{3}$S
,2.9,,not soluble,801.38,Octabromodiphenyl ether,C$_{12}$H$_{2}$Br$_{8}$O
375,4.89,,Insoluble,83.9949,Chromium(IV) oxide,CrO$_{2}$
,,,,,Trimethoprim,C$_{14}$H$_{18}$N$_{4}$O$_{3}$
,,,,,Dopamine,C$_{8}$H$_{11}$NO$_{2}$
,,,,,Trofosfamide,C$_{9}$H$_{18}$Cl$_{3}$N$_{2}$O$_{2}$P
,,,,,Finafloxacin,chemical_formulaC$_{20}$H$_{19}$FN$_{4}$O$_{4}$
,,,,342.77,Coumachlor,C$_{19}$H$_{15}$ClO$_{4}$
,,,,,Plicatol B,C$_{15}$H$_{12}$O$_{3}$
178-180,,,,,Nylon 12,(C$_{12}$H$_{23}$NO)$_{n}$
,,,,,Omacetaxine mepesuccinate,
1890,3.21,,insoluble,140.693,Magnesium orthosilicate,Mg$_{2}$SiO$_{4}$
701,5.01,1033,soluble,308.747,Manganese(II) iodide,MnI$_{2}$
190,2.34,,450,,Potassium metabisulfite,K$_{2}$O$_{5}$S$_{2}$
,,,,,Nicodicodeine,C$_{24}$H$_{26}$N$_{2}$O$_{4}$
300,,,Insoluble,,Cyclopentadienylthallium,C$_{5}$H$_{5}$Tl
204,,464.5,slightly soluble  0.25,294.43,Cinchonidine,C$_{19}$H$_{22}$N$_{2}$O
,,,,,Testosterone undecanoate,
,2.9,,,485.07,Bismuth(III) nitrate,Bi(NO$_{3}$)$_{3}$.5H$_{2}$O
183-187,1.21,,,,Camphoric acid,C$_{10}$H$_{16}$O$_{4}$
,,,,,Depramine,C$_{19}$H$_{22}$N$_{2}$
219-220,,,,161.22,S-Allyl cysteine,C$_{6}$H$_{11}$NO$_{2}$S
,,,,,Rifabutin,C$_{46}$H$_{62}$N$_{4}$O
,,82,,,Trifluoromethanesulfonic anhydride,C$_{2}$F$_{6}$O$_{5}$S$_{2}$
,,,,,Busulfan,C$_{6}$H$_{14}$O$_{6}$S$_{2}$
37.4,,degradation at about 200,,,Etofenprox,C$_{25}$H$_{28}$O$_{3}$
,,,,,MBX-8025,chemical_formulaC$_{20}$H$_{18}$F$_{3}$N$_{3}$O$_{3}$S
,,,,225.28,BOD (psychedelic),C$_{12}$H$_{19}$NO$_{3}$
356.7,2.52,400,73,261.97,Sodium dichromate,Na$_{2}$Cr$_{2}$O$_{7}$
,,,,,Org 28312,
,,,,302.27,Thunberginol E,C$_{16}$H$_{14}$O$_{6}$
,,,,,Flavokavain B,C$_{17}$H$_{16}$O$_{4}$
135,,,insoluble,,Antimony pentasulfide,Sb$_{2}$S$_{5}$
-213,,-95,,,Trifluoromethyl hypofluorite,OCF$_{4}$
,,,,,Terguride,C$_{20}$H$_{28}$N$_{4}$O
970,4.09,1100,165,93.84,Iron(II) fluoride,FeF$_{2}$
,,,,,Tienilic acid,
,,,,487.68,Myxothiazol,C$_{25}$H$_{33}$N$_{3}$O$_{3}$S$_{2}$
-19,1.33,,,,Triethylene glycol dinitrate,C$_{6}$H$_{12}$N$_{2}$O$_{8}$
,,,0.013,100.0869,Calcium carbonate,CaCO$_{3}$
,,,,,Osthol,C$_{15}$H$_{16}$O$_{3}$
,,,,,Ethonam,C$_{16}$H$_{18}$N$_{2}$O$_{2}$
205,,Decomp 245-305,,,DL-Phosphinothricin,C$_{5}$H$_{15}$N$_{2}$O$_{4}$P
2,,88,Soluble in 4 parts,,Diacetyl,C$_{4}$H$_{6}$O$_{2}$
,,,,,Carglumic acid,
,,,,,Olmesartan,C$_{29}$H$_{30}$N$_{6}$O$_{6}$
,,66,Insoluble in water,,Isobutylgermane,C$_{4}$H$_{12}$Ge
,,,,,Clofazimine,C$_{27}$H$_{22}$Cl$_{2}$N$_{4}$
,,,,,MG132,C$_{26}$H$_{41}$N$_{3}$O$_{5}$
,,,,,Pyridinoline,C$_{18}$H$_{28}$N$_{4}$O$_{8}$
,,,,,Nintedanib,C$_{23}$H$_{25}$BrN$_{2}$O$_{3}$
,,,,,Triamterene,C$_{12}$H$_{11}$N$_{7}$
,,,,,Lauryl methyl gluceth-10 hydroxypropyl dimonium chloride,Ca$_{12}$Al$_{14}$O$_{33}$
-58.2,,130.6,Slightly soluble,84.12,Cyclopentanone,C$_{5}$H$_{8}$O
3160,4.93,4820,insoluble in water,59.89,Titanium carbide,TiC
1460,7.25,,,,Cobalt boride,C$_{26}$H$_{14}$N$_{2}$O$_{4}$
,,,,210.27,Flavan,C$_{15}$H$_{14}$O
,,,,,Ximelagatran,C$_{24}$H$_{35}$N$_{5}$O$_{5}$
,,,,474.371,Cichoric acid,C$_{22}$H$_{18}$O$_{12}$
95-97,,,Hydrolyses to lactic acid,,Lactide,C$_{6}$H$_{8}$O$_{4}$
,,,,284.39,Boldione,C$_{19}$H$_{24}$O$_{2}$
,,,,,Etaracizumab,C$_{6392}$H$_{9908}$N$_{1732}$O$_{1996}$S$_{42}$
,,,,,Flephedrone,C$_{10}$H$_{12}$FNO
,,,,204.35,Amorpha-4 11-diene,C$_{15}$H$_{24}$
,,,,310.39,Avobenzone,C$_{20}$H$_{22}$O$_{3}$
156,,,,,Glabridin,C$_{20}$H$_{20}$O$_{4}$
12,1.007,284,,,N-Cyclohexyl-2-pyrrolidone,C$_{10}$H$_{17}$NO
,,,,,Norethynodrel,C$_{20}$H$_{26}$O$_{2}$
,,,,,Faropenem,C$_{12}$H$_{15}$NO$_{5}$S
,,,,,Oxymetholone,C$_{21}$H$_{32}$O$_{3}$
,,,,256.296,Pterostilbene,C$_{16}$H$_{16}$O$_{3}$
,,,High,,Cylindrospermopsin,C$_{15}$H$_{21}$N$_{5}$O$_{7}$S
,1.6,,very soluble,286.02,Cadmium tetrafluoroborate,Cd(BF$_{4}$)$_{2}$
,,,,,Histrelin,C$_{66}$H$_{86}$N$_{18}$O$_{12}$
54.4,,55.18,,,Neptunium hexafluoride,NpF$_{6}$
,,,,332.5,Docosatetraenoic acid,C$_{22}$H$_{36}$O$_{2}$
-122,0.75,90,3,,Dipropyl ether,C$_{6}$H$_{14}$O
,,,,,ABT-670,C$_{19}$H$_{23}$N$_{3}$O$_{2}$
168,3.597,,3.2,92.948,Cobalt(II) hydroxide,Co(OH)$_{2}$
,,,,452.369,Orange GGN,C$_{16}$H$_{10}$N$_{2}$Na$_{2}$O$_{7}$S$_{2}$(disodiumsalt)
,,,,,Epicriptine,C$_{32}$H$_{43}$N$_{5}$O$_{5}$
144,,,,,Altoqualine,C$_{27}$H$_{36}$N$_{2}$O$_{8}$
120,,,insoluble,,Silver acetylide,C$_{2}$Ag$_{2}$
,,500,hydrolyzes to form Re$_{2}$O$_{3}^{.}$xH$_{2}$O.,292.57,Trirhenium nonachloride,ReCl$_{3}$
,,,,,Amineptine,C$_{22}$H$_{28}$NO$_{2}$
80,1.45,,Soluble,,Magnesium acetate,Mg(CH$_{3}$COO)$_{2}$
,,,,,Deferiprone,C$_{7}$H$_{9}$NO$_{2}$
,,,,,Afzelin,C$_{21}$H$_{20}$O$_{10}$
,,,,463.294,Adenylosuccinate,C$_{14}$H$_{18}$N$_{5}$O$_{11}$P
,,,,,Denileukin diftitox,
-56.5,1.072,215,Miscible,182.15,Triethyl phosphate,C$_{6}$H$_{15}$O$_{4}$P
,,,,,Nitromethaqualone,C$_{16}$H$_{13}$N$_{3}$O$_{4}$
-119,,94,,,Heptene,C$_{7}$H$_{14}$
,,,,287.18,Potassium polonide,K$_{2}$Po
,,,,,Aprepitant,C$_{23}$H$_{21}$F$_{7}$N$_{4}$O$_{3}$
,,,,,Avoparcin,C$_{89}$H$_{102}$ClN$_{9}$O$_{36}$($\alpha$)
-3.9,1.438,201,,,Benzyl bromide,C$_{7}$H$_{7}$Br
,,,,,Pitrakinra,C$_{651}$H$_{1054}$N$_{190}$O$_{200}$S$_{8}$
,,,,,Sulfamerazine,C$_{11}$H$_{12}$N$_{4}$O$_{2}$S
45,,,sparingly soluble,,Calcium stearoyl-2-lactylate,C$_{48}$H$_{86}$CaO$_{12}$
,,,,422.31,Monocalcium citrate,C$_{12}$H$_{14}$CaO$_{14}$
,,,,556.055,Diuranium pentoxide,U$_{2}$O$_{5}$
,,,,,Difluoropine,C$_{23}$H$_{25}$F$_{2}$NO$_{3}$
131,,,,248.28,Sudan I,C$_{16}$H$_{12}$N$_{2}$O
,,,,,Trans-3-Methyl-4-octanolide,C$_{9}$H$_{16}$O$_{2}$
172-175,,,,455.685,Zinc gluconate,C$_{12}$H$_{22}$O$_{14}$Zn
,,,,,Hydroxypropyl cellulose,variable
131.6,,295,0.62,148.1,Phthalic anhydride,C$_{8}$H$_{4}$O$_{3}$
255-260,,,0.25,240.26,Tetramethylenedisulfotetramine,C$_{4}$H$_{8}$N$_{4}$O$_{4}$S$_{2}$
,,,,,Vabicaserin,C$_{15}$H$_{21}$ClN$_{2}$
,,,,,Prenoxdiazine,C$_{23}$H$_{27}$N$_{3}$O
-60,,102-103,Very slightly soluble,,Pentanal,C$_{5}$H$_{10}$O
,,,,,Bottromycin,C$_{42}$H$_{62}$N$_{8}$O$_{7}$S
-115,,28,,,Perflenapent,C$_{5}$F$_{12}$
183,,,,,Curcumin,C$_{21}$H$_{20}$O$_{6}$
,,,,,Toltrazuril,C$_{18}$H$_{14}$F$_{3}$N$_{3}$O$_{4}$S
136.4-143.8,,,0.51,,Imidacloprid,C$_{9}$H$_{10}$ClN$_{5}$O$_{2}$
19.5,2.502,48.3,,,Vanadium pentafluoride,VF$_{5}$
,,,,,Omigapil,C$_{19}$H$_{17}$NO
,,,,,Technetium (99mTc) arcitumomab,C$_{10}$H$_{13}$FN$_{2}$
,,,,,Ciluprevir,C$_{40}$H$_{50}$N$_{6}$O$_{8}$S
246,1.603,,soluble,,Serine,C$_{3}$H$_{7}$NO$_{3}$
,,,,,Isepamicin,C$_{22}$H$_{43}$N$_{5}$O$_{12}$
,,,,,Asimadoline,C$_{27}$H$_{30}$N$_{2}$O$_{2}$
,,,,462.66,Hippuristanol,C$_{28}$H$_{46}$O$_{5}$
,,,,,Trihydrogen cation,H$^{+}_{3}$
,,,,,Carnosic acid,C$_{20}$H$_{28}$O$_{4}$
,,,,,Hemopressin,C$_{53}$H$_{77}$N$_{13}$O$_{12}$
,,,insoluble,,Dicarbonyltris(triphenylphosphine)ruthenium(0),C$_{56}$H$_{45}$O$_{2}$P$_{3}$Ru
253,,,,,Carnosine,C$_{9}$H$_{14}$N$_{4}$O$_{3}$
,,,,,PSN-632 408,
,,,,,Noscapine,C$_{22}$H$_{23}$NO$_{7}$
,,,,,A-77636,C$_{20}$H$_{27}$NO$_{3}$
,,,,,N-Methylcarfentanil,C$_{17}$H$_{24}$N$_{2}$O$_{3}$
,,,,,Antheraxanthin,C$_{40}$H$_{56}$O$_{3}$
,,,,,Amidephrine,C$_{10}$H$_{16}$N$_{2}$O$_{3}$S