Property Melting Point,Property Density,Property Boiling Point,Property Solubility,Property Molar Mass,Name,formula
,,,,165.23,Perillartine,C$_{10}$H$_{15}$NO
,,,,,Sulfametrole,C$_{9}$H$_{10}$N$_{4}$O$_{3}$S$_{2}$
150-160,,,Insoluble in water,,Polylactic acid,(C$_{3}$H$_{4}$O$_{2}$)$_{n}$
98.9,1.17,,,,Acetamiprid,C$_{10}$H$_{11}$ClN$_{4}$
,2.97,,,,Ammonium dimolybdate,H$_{8}$N$_{2}$Mo$_{2}$O$_{7}$
-25,1.01,198,,,Octyl methoxycinnamate,C$_{18}$H$_{26}$O$_{3}$
,,,insoluble,,Polyacetylene,[C$_{2}$H$_{2}$]$_{n}$
,,,,323.34,Senicapoc,C$_{20}$H$_{15}$F$_{2}$NO
,,,,,AM-906,C$_{23}$H$_{34}$O$_{3}$
-61,0.846,156.5,very slightly soluble,100.159,Cis-3-Hexen-1-ol,C$_{6}$H$_{12}$O
285,4.96,656,,194.722,Indium(I) bromide,InBr
170-172,,,,,Benzimidazole,C$_{7}$H$_{6}$N$_{2}$
,,,,,Hodgkinsine,C$_{33}$H$_{38}$N$_{6}$
,,,,879.08,P57 (glycoside),C$_{47}$H$_{74}$O$_{15}$
,,,,316.82,Magic acid,HSbF$_{6}$SO$_{3}$
,,,,,Simple carbamazepine,C$_{15}$H$_{12}$N$_{2}$O
252.6,2.338,400,22.6,136.086,Monopotassium phosphate,KH$_{2}$PO$_{4}$
,,,not soluble,189.12,Cobaltocene,[Co($\eta^{5}$C$_{5}$H$_{5}$)$_{2}$]
,,,,,Bretylium,C11H17BrN1charge+
,,,,342.3,Kojibiose,C$_{12}$H$_{22}$O$_{11}$
,7.3,,Insoluble,747.6972,Terbium(III IV) oxide,Tb$_{4}$O$_{7}$
,,,,,Piperacetam,C$_{11}$H$_{19}$N$_{3}$O$_{2}$
,,,,2465.668,Corticotropin-like intermediate peptide,C$_{112}$H$_{165}$N$_{27}$O$_{36}$
,,,,,Dithranol,C$_{14}$H$_{10}$O$_{3}$
490,,,reacts violently to form CsOH,281.81,Caesium oxide,Cs$_{2}$O
104-105,,,,,Dazomet,C$_{5}$H$_{10}$N$_{2}$S$_{2}$
13-14,1.043,90-92,,,N-Vinylpyrrolidone,C$_{6}$H$_{9}$NO
,1.45,,,,Rhoeadine,C$_{21}$H$_{21}$NO$_{6}$
116-119,,,,,Dopastin,C$_{9}$H$_{17}$N$_{3}$O$_{3}$
,,,,102.127,Disulfur difluoride,S$_{2}$F$_{2}$
-73,,85,,,Tert-Amyl chloride,C$_{5}$H$_{11}$Cl
,,,,,QUCHIC,C$_{25}$H$_{24}$N$_{2}$O$_{2}$
,,,,,Heme arginate,C$_{40}$H$_{48}$FeN$_{8}$O$^{+2}_{6}$
,,,,,Salsalate,C$_{14}$H$_{10}$O$_{5}$
,,,,,Pyr-T,C$_{14}$H$_{18}$N$_{2}$
47.5,,,3.05,,Phosalone,C$_{12}$H$_{15}$ClNO$_{4}$PS$_{2}$
199,,,7.5,,Glutamic acid,C$_{5}$H$_{9}$NO$_{4}$
,,,Reacts,,Nascent hydrogen,H
,,,,,Volociximab,C$_{6434}$H$_{9942}$N$_{1706}$O$_{2040}$S$_{52}$
,1.81,330,18.5,245.79,Tetraamminecopper(II) sulfate,[Cu(NH$_{3}$)$_{4}$(H$_{2}$O)$_{n}$]SO$_{4}$
,,,,,Mirtazapine,C$_{17}$H$_{19}$N$_{3}$
10,,337,miscible,98.079,Sulfuric acid,H$_{2}$SO$_{4}$
11.8,1.25,165,,88.06,Pyruvic acid,C$_{3}$H$_{4}$O$_{3}$
155,1.619,,57.5,132.07,Diammonium phosphate,(NH$_{4}$)$_{2}$HPO$_{4}$
210,,516.8,,319.401,Epalrestat,C$_{15}$H$_{13}$NO$_{3}$S$_{2}$
,,,,,ADBICA,C$_{20}$H$_{29}$N$_{3}$O$_{2}$
,,,,471.42,Oxapium iodide,C$_{22}$H$_{34}$INO$_{2}$
,,,,,Farnesyl pyrophosphate,C$_{15}$H$_{28}$O$_{7}$P$_{2}$
,,,,,Ergotamine,C$_{33}$H$_{35}$N$_{5}$O$_{5}$
,,,,375.38,Acid orange 5,C$_{18}$H$_{14}$N$_{3}$NaO$_{3}$S
,,,,737.72374,Water blue,C$_{32}$H$_{25}$N$_{3}$O$_{9}$S$_{3}$Na$_{2}$
,,,,,Irinotecan,C33H38N4O6e
-44.8,,164.7,0.002% (20$^{\circ}$C),120.19,Mesitylene,C$_{9}$H$_{12}$
31-32,,342,,,Civetone,C$_{17}$H$_{30}$O
172.5,,408,,220.093,Phosphorus sesquisulfide,P$_{4}$S$_{3}$
,,,,,Sulfur dibromide,Br$_{2}$S
,,,,,Cannabidivarin,C$_{19}$H$_{26}$O$_{2}$
,,,,276.4,Stearidonic acid,C$_{18}$H$_{28}$O$_{2}$
61-65,,,,,Sinapyl alcohol,C$_{11}$H$_{14}$O$_{4}$
,,,,,Sodium thiopental,
,,,,,Ergometrine,C$_{19}$H$_{23}$N$_{3}$O$_{2}$
179,,,327,,Clothianidin,C$_{6}$N$_{5}$H$_{8}$SO$_{2}$Cl
,,,,,Arbekacin,C$_{22}$H$_{44}$N$_{6}$O$_{10}$
61-62,,,,222.37,Cubebol,C$_{15}$H$_{26}$O
,,,,,Torreyanic acid,
,,,,163.29,Xenon dioxide,XeO$_{2}$
-53,0.858,129.5,,,Mesityl oxide,C$_{6}$H$_{10}$O
,,,,,Tolperisone,C$_{16}$H$_{23}$NO
,,,,,Nabazenil,C$_{35}$H$_{55}$NO$_{3}$
,,,,,Ciclopramine,C$_{18}$H$_{20}$N$_{2}$
42-43,,,,366.62,Nervonic acid,C$_{24}$H$_{46}$O$_{2}$
,,,,,Quinethazone,C$_{10}$H$_{12}$ClN$_{3}$O$_{3}$S
,,,,,E-6801,C$_{17}$H$_{18}$ClN$_{5}$O$_{2}$S$_{2}$
,,55-60,Sparingly soluble,136.24,Pentamethylcyclopentadiene,C$_{10}$H$_{16}$
152.1,1.36,337.5,14,,Adipic acid,C$_{6}$H$_{10}$O$_{4}$
,,,,,Gemopatrilat,C$_{19}$H$_{26}$N$_{2}$O$_{4}$S
,,,,,Desmethylsertraline,C$_{16}$H$_{15}$Cl$_{2}$N
,,,,269.19,Chlorbenside,C$_{13}$H$_{10}$Cl$_{2}$S
11.83,,,soluble,,Cadaverine,C$_{5}$H$_{14}$N$_{2}$
432,3.89,,decomposes,320.302,Hafnium tetrachloride,HfCl$_{4}$
,,,,287.24,Cyanidin,C$_{15}$H$_{11}$O$^{+}_{6}$
,,75.6,,174.8893,Ethyldichloroarsine,C$_{2}$H$_{5}$AsCl$_{2}$
,,,,,Rebeccamycin,C$_{27}$H$_{21}$Cl$_{2}$N$_{3}$O$_{7}$
338,1.5274,520,244,,Ammonium chloride,NH$_{4}$Cl
,,,,390.384,Piceid,C$_{20}$H$_{22}$O$_{8}$
80,1.78,206,Reacts,296.748,Triphosgene,C$_{3}$Cl$_{6}$O$_{3}$
,,,,294.97,Davicil,C$_{6}$H$_{3}$Cl$_{4}$NO$_{2}$S
58,,373,Insoluble,,Triphenylarsine,C$_{18}$H$_{15}$As
61,,,,,Diphenyl disulfide,C$_{12}$H$_{10}$S$_{2}$
927,3.88,,reacts,115.928,Cobalt(III) fluoride,CoF$_{3}$
,1.17,,,,Benzyl salicylate,C$_{14}$H$_{12}$O$_{3}$
,,,,,Pentoxyverine,C$_{20}$H$_{31}$NO$_{3}$
,,,,512.72,Acetoxolone,C$_{32}$H$_{48}$O$_{5}$
,,,,,Parahexyl,C$_{22}$H$_{32}$O$_{2}$
44.7-67.4,0.8752,315,Insoluble,,Tripalmitin,C$_{51}$H$_{98}$O$_{6}$
-155.2,,-82.1,1,70.01,Fluoroform,CHF$_{3}$
,,,,347.836,Benzilylcholine mustard,C$_{19}$H$_{22}$ClNO$_{3}$
,,,,,Trabectedin,C$_{39}$H$_{43}$N$_{3}$O$_{11}$S
,,,,,L-AP4,C$_{4}$H$_{10}$NO$_{5}$P
960,,,soluble,151.31,Scandium chloride,ScCl$_{3}$
,,,,295.35,Nepicastat,C$_{14}$H$_{15}$F$_{2}$N$_{3}$S
-36.5,1.634,137,,,Bromoacetone,C$_{3}$H$_{5}$BrO
,,,,,Pirolate,C$_{16}$H$_{15}$N$_{3}$O$_{5}$
190,,,,1111.32,Valinomycin,C$_{54}$H$_{90}$N$_{6}$O$_{18}$
,,,,,Butyltolylquinuclidine,C$_{18}$H$_{27}$N
,,,,,PD-217 014,
10.3,1.012,170,Miscible,,Ethanolamine,C$_{2}$H$_{7}$NO
,,,,,N-Acetylprocainamide,C$_{15}$H$_{23}$N$_{3}$O$_{2}$
,,,,,Carbazochrome,C$_{10}$H$_{12}$N$_{4}$O$_{3}$
200,1.33,,61,,ATMP,C$_{3}$H$_{12}$NO$_{9}$P$_{3}$
,,,,,Mercury(I) oxide,Hg$_{2}$O
,,,,,Nitrourea,CH$_{3}$N$_{3}$O$_{3}$
90.9,,,Insoluble,,Montanic acid,C$_{28}$H$_{56}$O$_{2}$
,,,,,ALPHA (psychedelic),
,,,,317.27,Petunidin,C$_{16}$H$_{13}$O$^{+}_{7}$(Cl$^{-}$)
,,,,,Ornidazole,C$_{7}$H$_{10}$ClN$_{3}$O$_{3}$
,,,,,Bacampicillin,C$_{21}$H$_{27}$N$_{3}$O$_{7}$S
,,,,,Poldine,C21H26NO3charge+
,,,,,Belinostat,C$_{15}$H$_{14}$N$_{2}$O$_{4}$S
,,,,,N-Phenethylnordesomorphine,C$_{24}$H$_{27}$NO$_{2}$
169,,,,552.85,Cryptoxanthin,C$_{40}$H$_{56}$O
,,,,146.26,Trimethylsilyl propanoic acid,"C$_{6}$H$_{14}$O$_{2}$Si(acid),C$_{6}$H$_{13}$O$_{2}$Si$^{-}$(anion)"
165-167,,,,392.57,Chenodeoxycholic acid,C$_{24}$H$_{40}$O$_{4}$
,,,,,Pentagastrin,C$_{37}$H$_{49}$N$_{7}$O$_{9}$S
,,,,,Tolvaptan,C$_{26}$H$_{25}$ClN$_{2}$O$_{3}$
,,,,650.76,Thapsigargin,C$_{34}$H$_{50}$O$_{12}$
,,,,,Deracoxib,C$_{17}$H$_{14}$F$_{3}$N$_{3}$O$_{3}$S
1050,7.2,,,134.904,Rhodium(IV) oxide,RhO$_{2}$
,,,,,Pitavastatin,C$_{25}$H$_{24}$FNO$_{4}$
,,,,,TDIQ,C$_{10}$H$_{11}$NO$_{2}$
,,,,,Phthalylsulfathiazole,C$_{17}$H$_{13}$N$_{3}$O$_{5}$S$_{2}$
,,,,,Mepiprazole,C$_{16}$H$_{21}$ClN$_{4}$
,,,,,Peruvoside,C$_{30}$H$_{44}$O$_{9}$
,,,,,Piprozolin,C$_{14}$H$_{22}$N$_{2}$O$_{3}$S
,,,,887.96,Amanullinic acid,C$_{39}$H$_{53}$N$_{9}$O$_{13}$S
,,,,,Metheptazine,C$_{16}$H$_{23}$NO$_{2}$
1650,1.5,,soluble,81.97,Sodium aluminate,NaAlO$_{2}$
,,,,278.22,Diazolidinyl urea,C$_{8}$H$_{14}$N$_{4}$O$_{7}$
,,,,,Vorozole,C$_{16}$H$_{13}$ClN$_{6}$
2050,6.17,,insoluble,62.81,Chromium(III) boride,CrB
-68,,186,,,Propyl hexanoate,C$_{9}$H$_{18}$O$_{2}$
,,,,,Heme B,C$_{34}$H$_{32}$O$_{4}$N$_{4}$Fe
-73,,108,,270.72,Tribromofluoromethane,CBr$_{3}$F
183-188,,,,376.57,Lithocholic acid,C$_{24}$H$_{40}$O$_{3}$
,,,,,Capsinolol,C$_{23}$H$_{40}$N$_{2}$O$_{4}$
-55,,98.5,78.9,,Nitroethylene,C$_{2}$H$_{3}$NO$_{2}$
,,,,,Muraglitazar,C$_{29}$H$_{28}$N$_{2}$O$_{7}$
,,605.1,,,Bis(2 4-dinitrophenyl) oxalate,C$_{14}$H$_{6}$N$_{4}$O$_{12}$
,,,,,Mifepristone,C$_{29}$H$_{35}$NO$_{2}$
,,,,374.04,Roussin's red salt,Fe$_{2}$N$_{4}$K$_{2}$O$_{4}$S$_{2}$
-73.6,0.884325,98.9,,102.1317,Ethyl propionate,C$_{5}$H$_{10}$O$_{2}$
,,,,281.26,Pangamic acid,C$_{10}$H$_{19}$NO$_{8}$
,,,,,Pentobarbital,C$_{11}$H$_{18}$N$_{2}$O$_{3}$
,,,13% (20$^{\circ}$C),,Malononitrile,C$_{3}$H$_{2}$N$_{2}$
,,,,,Ranolazine,C$_{24}$H$_{33}$N$_{3}$O$_{4}$
,,,,,FD&amp,C$_{16}$H$_{11}$N$_{2}$NaO$_{4}$S
,,,,,Prifinium bromide,
,,,,314.187,Phosphoribosyl-N-formylglycineamide,C$_{8}$H$_{15}$N$_{2}$O$_{9}$P
,,,,,NS-2710,C$_{22}$H$_{20}$N$_{4}$O
,,,,,Metharbital,C$_{9}$H$_{14}$N$_{2}$O$_{3}$
,,,,332.26,Patuletin,C$_{16}$H$_{12}$O$_{8}$
,,,,,Barnidipine,C$_{27}$H$_{29}$N$_{3}$O$_{6}$
,,,,,Triphenylmethyl radical,C$_{19}$H$_{15}$
450,,,reacts with water,410.86,Zirconium(IV) bromide,ZrBr$_{4}$
,1.032,,insoluble,,Sorbitan monolaurate,C$_{18}$H$_{34}$O$_{6}$
,,,,,Cyclopentobarbital,C$_{12}$H$_{14}$N$_{2}$O$_{3}$
1933,6.44,,insoluble in water,74.9326,Cobalt(II) oxide,CoO
,,,,,Permanganic acid,HMnO$_{4}$
,,,,,J-113 397,
,,,,,Methylphenobarbital,C$_{13}$H$_{14}$N$_{2}$O$_{3}$
54.4,0.917,232,,,Pentamethylbenzene,C$_{11}$H$_{16}$
-93,0.934,72.7,,86.09,Vinyl acetate,C$_{4}$H$_{6}$O$_{2}$
,,,,152.73,Tin(II) hydroxide,Sn(OH)$_{2}$
-111,,34.7,,94.62,Chlorodimethylsilane,(CH$_{3}$)$_{2}$SiHCl
,,,,627.81,Bemotrizinol,C$_{38}$H$_{49}$N$_{3}$O$_{5}$
,,,,,Forskolin,C$_{22}$H$_{34}$O$_{7}$
,,,,,Ortetamine,C$_{10}$H$_{15}$N
,,,,,Manoalide,C$_{25}$H$_{36}$O$_{5}$
600,,,0.0043,120.17,Calcium sulfite,CaSO$_{3}$
,,,miscible,,Tetraethyl pyrophosphate,C$_{8}$H$_{20}$O$_{7}$P$_{2}$
,,,,,CGP-7930,C$_{19}$H$_{32}$O$_{2}$
,,,,,Temazepam,C$_{16}$H$_{13}$ClN$_{2}$O$_{2}$
,,,,,Idanpramine,C$_{24}$H$_{29}$N$_{3}$O$_{4}$
,,,Reacts,,Singlet oxygen,O$_{2}$
2200,3.26,2517,"reacts (powder), insoluble (monocrystalline)",40.9882,Aluminium nitride,AlN
,,,,,Budiodarone,C$_{27}$H$_{31}$I$_{2}$NO$_{5}$
,,,,,Ibandronic acid,
,,,,324.28,Sterigmatocystin,C$_{18}$H$_{12}$O$_{6}$
208,,,,522.45,Iridin,C$_{24}$H$_{26}$O$_{13}$
,,,,877.037,Spinorphin,C$_{45}$H$_{64}$N$_{8}$O$_{10}$
,0.811,113,,100.16,Ethyl isopropyl ketone,C$_{6}$H$_{12}$O
,,,,,Hexanitrodiphenylamine,C$_{12}$H$_{5}$N$_{7}$O$_{12}$
,,,,,Mosapride,C$_{21}$H$_{25}$ClFN$_{3}$O$_{3}$
,,,,,Previtamin D3,C$_{27}$H$_{44}$O
,,,,,JWH-149,C$_{26}$H$_{27}$NO
,,,,,Fluvalinate,C$_{26}$H$_{22}$ClF$_{3}$N$_{2}$O$_{3}$
350,,,Slightly Soluble,,Iron(II) citrate,C$_{6}$H$_{6}$FeO$_{7}$
,,,,,SDB-006,C$_{21}$H$_{24}$N$_{2}$O
,,,,571.59,Uranyl zinc acetate,ZnUO$_{2}$(CH$_{3}$COO)$_{4}$
,,,,,Yunnanin A,C$_{34}$H$_{41}$N$_{7}$O$_{8}$
,,,,,Metaraminol,C$_{9}$H$_{13}$NO$_{2}$
,,,,,Cefpiramide,C$_{25}$H$_{24}$N$_{8}$O$_{7}$S$_{2}$
28-30,,317,,,Octadecane,C$_{18}$H$_{38}$
,,,,,Tripelennamine,C$_{16}$H$_{21}$N$_{3}$
-121,,-38,reacts,108.07,Sulfur tetrafluoride,SF$_{4}$
,,,,,Nalbuphine,C$_{21}$H$_{27}$NO$_{4}$
,,,,,Ingenol mebutate,
,,,,,Cefroxadine,C$_{16}$H$_{19}$N$_{3}$O$_{5}$S
114-118,,,,,ABCN,C$_{14}$H$_{20}$N$_{4}$
,,,,,BU09059,C$_{28}$H$_{37}$N$_{3}$O$_{5}$
,,,,,Flexuosol A,C$_{56}$H$_{42}$O$_{12}$
,,,,,Fluocortin,C$_{22}$H$_{27}$FO$_{5}$
,,,,,Metacycline,C$_{22}$H$_{22}$N$_{2}$O$_{8}$
,,,,,Glucogallin,C$_{13}$H$_{16}$O$_{10}$
,1.32,190,Soluble,,Benzenesulfonic acid,C$_{6}$H$_{6}$O$_{3}$S
,,,,,Pegfilgrastim,C845H1343N223O243S9+PEG
,,,,,Anitrazafen,C$_{18}$H$_{17}$N$_{3}$O$_{2}$
,,,,,Polyoxymethylene,(CH$_{2}$O)$_{n}$
119,,,,,Cyclopentadienyliron dicarbonyl iodide,C$_{7}$H$_{5}$FeIO$_{2}$
,,,,,ThioTEPA,C$_{6}$H$_{12}$N$_{3}$PS
,,,,266.33,Juncusol,C$_{18}$H$_{18}$O$_{2}$
-99,,112,0.8,116.16,Sec-Butyl acetate,C$_{6}$H$_{12}$O$_{2}$
29-31,,,,,N-Methylpseudoephedrine,C$_{11}$H$_{17}$NO
,,,,,Clemastine,C$_{21}$H$_{26}$ClNO
73.4,3.14,223.5,601.1,,Antimony trichloride,SbCl$_{3}$
179-180,,,,,Vernolepin,C$_{15}$H$_{16}$O$_{5}$
,,,,256.25,Isoliquiritigenin,C$_{15}$H$_{12}$O$_{4}$
195,,,Freely soluble,,Glutathione,C$_{10}$H$_{17}$N$_{3}$O$_{6}$S
,3.5,,"Insoluble in water, pH 6.9",,Dicopper chloride trihydroxide,Cu$_{2}$(OH)$_{3}$Cl
,0.997,,128.1,68.154,Ammonium sulfide,(NH$_{4}$)$_{2}$S
325,2.71,,209,206.98,Calcium chlorate,Ca(ClO$_{3}$)$_{2}$
,,,,,Alnetin,C$_{18}$H$_{16}$O$_{6}$
-49,0.922,169,,,Arachidonic acid,C$_{20}$H$_{32}$O$_{2}$
770,,921,,373.849,Thorium(IV) chloride,ThCl$_{4}$
,,,,,Heptabarb,C$_{13}$H$_{18}$N$_{2}$O$_{3}$
,,223,,,Octadecyltrichlorosilane,C$_{18}$H$_{37}$Cl$_{3}$Si
,,,,,Clazolam,C$_{18}$H$_{17}$ClN$_{2}$O
,,,,,Brilliant Blue FCF,C$_{37}$H$_{34}$N$_{2}$Na$_{2}$O$_{9}$S$_{3}$
195,2.31,,soluble,45.881,Lithium peroxide,Li$_{2}$O$_{2}$
,,,,,Magaldrate,chemical_formulaAlMg$_{2}$(OH)$_{7}$$\cdot$H$_{2}$O
,,,,,A-372159,C$_{24}$H$_{27}$F$_{3}$N$_{2}$O$_{2}$
,,,,268.13,Manganese(III) acetate,C$_{6}$H$_{9}$MnO$_{6}$.2H$_{2}$O
,,,,297.35,Codeinone,C$_{4}$H$_{8}$
63,,189.3,85.8,,Chloroacetic acid,C$_{2}$H$_{3}$ClO$_{2}$
,,,,,Efaroxan,C$_{13}$H$_{16}$N$_{2}$O
,,,,,Methylenomycin B,C$_{8}$H$_{10}$O
-25,,135,soluble in water,,Cyclopropyl cyanide,C$_{4}$H$_{5}$N
,,,,768.856,Deltorphin I,C$_{37}$H$_{52}$N$_{8}$O$_{10}$
,,,,,Technetium (99mTc) tetrofosmin,
,,,,,Netoglitazone,C$_{21}$H$_{16}$FNO$_{3}$S
,,,,,Diproqualone,C$_{12}$H$_{14}$N$_{2}$O$_{3}$
-5,,285,,,Squalene,C$_{30}$H$_{50}$
-50,,247.5,9.8,,Tabun (nerve agent),C$_{5}$H$_{11}$N$_{2}$O$_{2}$P
,,,,,Mebhydrolin,C$_{19}$H$_{20}$N$_{2}$
-76,,70,Decomposes in water,,Dimethyldichlorosilane,C$_{2}$H$_{6}$SiCl$_{2}$
102,,,,388.6756,Coprostanol,C$_{27}$H$_{48}$O
900-1100,,,0.08,518.078,Uranium nitride,U$_{2}$N$_{3}$
,,,,,Bufexamac,C$_{12}$H$_{17}$NO$_{3}$
,,,,,Azelastine,C$_{22}$H$_{24}$ClN$_{3}$O
,,,,1147.36,Antamanide,C$_{64}$H$_{78}$N$_{10}$O$_{10}$
828,,1490,soluble,398.637,Terbium(III) bromide,TbBr$_{3}$
,1.65,,,,Chlorine nitrate,ClNO$_{3}$
,,,,,Enprazepine,C$_{20}$H$_{24}$N$_{2}$
,,,,,Vadimezan,C$_{17}$H$_{14}$O$_{4}$
,,,,234.4,Ajoene,C$_{9}$H$_{14}$OS$_{3}$
,,,,,Tasquinimod,C$_{20}$H$_{17}$F$_{3}$N$_{2}$O$_{4}$
,,,,,Fluocinonide,C$_{26}$H$_{32}$F$_{2}$O$_{7}$
,,,,,Cyprazepam,C$_{19}$H$_{18}$ClN$_{3}$O
-75,,180-183,1.2,,Dimethylbenzylamine,C$_{9}$H$_{13}$N
161,1.348,,,,Maltol,C$_{6}$H$_{6}$O$_{3}$
175,,209,~1000,,Camphor,C$_{10}$H$_{16}$O
141.3,,180,,,Pentaerythritol tetranitrate,C$_{5}$H$_{8}$N$_{4}$O$_{12}$
48-55,,264-270,Insoluble in water,,Butylated hydroxyanisole,C$_{11}$H$_{16}$O$_{2}$
,,,,,Dilazep,C$_{31}$H$_{44}$N$_{2}$O$_{10}$
,,,,,Dewar benzene,C$_{6}$H$_{6}$
,,,,,Clofibrate,C$_{12}$H$_{15}$ClO$_{3}$
-59,,100,930.7$\pm$33.7,,Hexamethyldisiloxane,C$_{6}$H$_{18}$OSi$_{2}$
,,,,,P-Azobenzenearsonate,C$_{12}$H$_{12}$As$_{2}$N$_{2}$O$_{6}$
,,,,,Sulfadimethoxine,C$_{12}$H$_{14}$N$_{4}$O$_{4}$S
93.5,2.45,120,15,237.15,Ammonium aluminium sulfate,(NH$_{4}$)Al(SO$_{4}$)$_{2}$
,,,,,Ro01-6128,C$_{17}$H$_{17}$NO$_{3}$
,,,,,Prodelphinidin B9,C$_{30}$H$_{26}$O$_{13}$
,,,,104.3682,Magnesium sulfite,MgSO3(anhydrous)MgSO3.6H2O
,,,,,O-806,C$_{22}$H$_{27}$BrO$_{2}$
202,,,"good, also in methanol",,Uridine monophosphate,C$_{9}$H$_{13}$N$_{2}$O$_{9}$P
,,,,,Acetohexamide,C$_{15}$H$_{20}$N$_{2}$O$_{4}$S
,,,,75.96,Borane dimethylsulfide,(CH$_{3}$)$_{2}$S.BH$_{3}$
747,3.21,1390,71.35,,Sodium bromide,NaBr
,,,,164.15,Caffeic aldehyde,C$_{9}$H$_{8}$O$_{3}$
234,,,Iodide and chloride are both highly soluble in water,,Candicine,"C$_{11}$H$_{18}$NO$^{+}$,"
8,,85,,,Alpha-Ketoisocaproic acid,C$_{6}$H$_{10}$O$_{3}$
,,,,244.26,Indolyl-3-acryloylglycine,C$_{13}$H$_{12}$N$_{2}$O$_{3}$
,,,,,BAY 38-7271,
,2.712,,,100.9494,Magnesium nitride,Mg$_{3}$N$_{2}$
,,,,,STS-135 (drug),
182.3,,,very soluble in water and ethanol,,Guanidinium chloride,CH$_{6}$ClN$_{3}$
72-75,,,,,Nitramide,H$_{2}$N$_{2}$O$_{2}$
,,,,,Salubrinal,C$_{21}$H$_{17}$Cl$_{3}$N$_{4}$OS
,,,,,Idarubicin,C$_{26}$H$_{27}$NO$_{9}$
,,,,336.466,Arachidonic acid 5-hydroperoxide,C$_{20}$H$_{32}$O$_{4}$
,,,,,Tazarotene,C$_{21}$H$_{21}$NO$_{2}$S
170.5,4.921,401.6,reacts,,Antimony triiodide,SbI$_{3}$
,,,,,EA-3580,C$_{18}$H$_{25}$NO$_{3}$
,,,,,Bortezomib,C$_{19}$H$_{25}$BN$_{4}$O$_{4}$
,,,,,Carbarsone,C$_{7}$H$_{9}$AsN$_{2}$O$_{4}$
1100,8.2,,insoluble,253.8092,Rhodium(III) oxide,Rh$_{2}$O$_{3}$
,,,,392.404,SN-38,C$_{22}$H$_{20}$N$_{2}$O$_{5}$
,,,,,Mozavaptan,C$_{27}$H$_{29}$N$_{3}$O$_{2}$
,,,,,Butofilolol,C$_{17}$H$_{26}$FNO$_{3}$
360,,,,484.40298,Rhenium(VII) oxide,O$_{7}$Re$_{2}$
,,,,,Dienogest,C$_{20}$H$_{25}$NO$_{2}$
,,,,,Peroxynitrous acid,NHO$_{3}$
,2.009,,16.1,130.113,Calcium formate,Ca(HCOO)$_{2}$
,,,,,Clarithromycin,C$_{38}$H$_{69}$NO$_{13}$
104-109,,,,426.47,Chiraphos,C$_{28}$H$_{28}$P$_{2}$
,,,,,Valproic acid,
,,,,,Glycidol,C$_{3}$H$_{6}$O$_{2}$
,,,,,DMPX,C$_{10}$H$_{10}$N$_{4}$O$_{2}$
,,,,290.83,Beta-Hexachlorocyclohexane,C$_{6}$H$_{6}$Cl$_{6}$
248-261,2.49,300-400,79,,Sodium chlorate,NaClO$_{3}$
,,,,,Acivicin,C$_{5}$H$_{7}$ClN$_{2}$O$_{3}$
168,,,Moderate,,Indole-3-acetic acid,C$_{10}$H$_{9}$NO$_{2}$
286,1.26,,45,,Lithium acetate,C$_{2}$H$_{3}$LiO$_{2}$
,,,,,Calcium alginate,(C$_{12}$H$_{14}$CaO$_{12}$)$_{n}$
,,,,,Penbutolol,C$_{18}$H$_{29}$NO$_{2}$
,,,,,K252a,C$_{27}$H$_{21}$N$_{3}$O$_{5}$
,,,,,LSD-Pip,C$_{21}$H$_{25}$N$_{3}$O
,1.141,,,275.79,Dimethenamid,C$_{12}$H$_{18}$ClNO$_{2}$S
,,,,,Hexobarbital,C$_{12}$H$_{16}$N$_{2}$O$_{3}$
,,,,,NSI-189,C$_{22}$H$_{30}$N$_{4}$O
,,,,,Hydroperoxyl,HO$_{2}$
121,,226,moderate,,N-Methylconiine,C$_{8}$H$_{17}$NO
,,,,,Iotalamic acid,
,,,,500.46,Nocardicin A,C$_{23}$H$_{24}$N$_{4}$O$_{9}$
,,,,,Inosine,C$_{10}$H$_{12}$N$_{4}$O$_{5}$
,,,insoluble in acetone,603.3,Chromium acetate hydroxide,Cr$_{3}$(OH)$_{2}$(OOCCH$_{3}$)$_{7}$
,,,,,Nerisopam,C$_{18}$H$_{19}$N$_{3}$O$_{2}$
,,,,,Avanafil,C$_{23}$H$_{26}$ClN$_{7}$O$_{3}$
,,,,,Morniflumate,C$_{19}$H$_{20}$F$_{3}$N$_{3}$O$_{3}$
,,,,,Cadmium chromate,CdCrO$_{4}$
165,,,0.069,316.755,Mercury(II) thiocyanate,Hg(SCN)$_{2}$
,,,,,Prostaglandin E3,
,,,,,Zucapsaicin,C$_{18}$H$_{27}$NO$_{3}$
103,,,,322.368,Tetra-n-butylammonium bromide,C$_{16}$H$_{36}$BrN
,,,,,Brinzolamide,C$_{12}$H$_{21}$N$_{3}$O$_{5}$S$_{3}$
,,,,,Fasudil,C$_{27}$H$_{38}$F$_{6}$O$_{3}$
350,3.91,,"Soluble in small amounts, hydrolyzes in large amounts of water",332.24,Cerium(IV) sulfate,Ce(SO$_{4}$)$_{2}$
772-775,2.15,1935,Hexahydrate:,,Calcium chloride,CaCl$_{2}$
,,,,,Frovatriptan,C$_{14}$H$_{17}$N$_{3}$O
,,,,188.18,DMDM hydantoin,C$_{7}$H$_{12}$N$_{2}$O$_{4}$
,,,,,Nantenine,C$_{20}$H$_{21}$NO$_{4}$
-99,,26,,,Tetramethylsilane,C$_{4}$H$_{12}$Si
1474,4.72,1750,4,96.6902,Nickel(II) fluoride,NiF$_{2}$
338,,,reacts,,Potassium amide,KNH$_{2}$
884,2.664,1429,anhydrous:   4.76,142.04,Sodium sulfate,Na$_{2}$SO$_{4}$
,,,,,Bornane,C$_{10}$H$_{18}$
,,,,,Lixivaptan,C$_{27}$H$_{21}$ClFN$_{3}$O$_{2}$
,,,,,Sulconazole,C$_{18}$H$_{15}$Cl$_{3}$N$_{2}$S
,,,,397.51,Diethylamino hydroxybenzoyl hexyl benzoate,C$_{24}$H$_{31}$NO$_{4}$
,,,,,Cadralazine,C$_{12}$H$_{21}$N$_{5}$O$_{3}$
1014,6.9,,0.000014,,Lead(II) phosphate,Pb$_{3}$P$_{2}$O$_{8}$
,,,,,Fleroxacin,C$_{17}$H$_{18}$F$_{3}$N$_{3}$O$_{3}$
,,,,936.64,Casuarictin,C$_{41}$H$_{28}$O$_{26}$
,1.388,,,,Nithiazine,C$_{5}$H$_{8}$N$_{2}$O$_{2}$S
,,,,,Autoinducer-2,C$_{5}$H$_{10}$BO$_{7}$
,,,,,Talarozole,C$_{21}$H$_{23}$N$_{5}$S
,,,,,Valdecoxib,C$_{16}$H$_{14}$N$_{2}$O$_{3}$S
,,,,,P-Hydroxynorephedrine,C$_{9}$H$_{13}$NO$_{2}$
> 300,1.6,,,,Dibutyltin oxide,C$_{8}$H$_{18}$OSn
,,,,196.246,Fasoracetam,C$_{10}$H$_{16}$N$_{2}$O$_{2}$
,,,,,Bardoxolone methyl,
-97.6,,64.7,,,Methanol,CH$_{3}$OH
,,,,,Ro67-4853,C$_{19}$H$_{19}$NO$_{4}$
,,,,,Quipazine,C$_{13}$H$_{15}$N$_{3}$
,,,,,Uldazepam,C$_{18}$H$_{15}$Cl$_{2}$N$_{3}$O
,,,,,Potassium octachlorodirhenate,K$_{2}$Re$_{2}$Cl$_{8}$
,,,,,Thiobutabarbital,C$_{10}$H$_{16}$N$_{2}$O$_{2}$S
,,,,,PHCCC,C$_{17}$H$_{14}$N$_{2}$O$_{3}$
,,,,,Diborane(4),B$_{2}$H$_{4}$
,,,,,Pyrimethamine,C$_{12}$H$_{13}$ClN$_{4}$
82-84,,,,154.253,Dithioerythritol,C$_{4}$H$_{10}$O$_{2}$S$_{2}$
116,,,,316.34,Combretastatin A-4,C$_{18}$H$_{20}$O$_{5}$
167,1.723,,683,,Galactose,C$_{6}$H$_{12}$O$_{6}$
1525,5.27,,negligible,144.35,Zinc selenide,ZnSe
43.9,,,,,Lactofen,C$_{19}$H$_{15}$ClF$_{3}$NO$_{7}$
,,,,,Thiorphan,C$_{12}$H$_{15}$NO$_{3}$S
,,,,,O-2172,C$_{14}$H$_{16}$Cl$_{2}$O$_{2}$
,,,,300.43512,Retinoic acid,C$_{20}$H$_{28}$O$_{2}$
-34.6,7.887,-46.6,insoluble,192.9534,Selenium hexafluoride,SeF$_{6}$
,,,,,CP-135807,C$_{19}$H$_{21}$N$_{5}$O$_{2}$
,,,,,Salbutamol,C$_{13}$H$_{21}$NO$_{3}$
,,,,376.44,Bis-HPPP,C$_{21}$H$_{28}$O$_{6}$
,,,,,Quifenadine,C$_{20}$H$_{23}$NO
,,,,,Nicardipine,C$_{26}$H$_{29}$N$_{3}$O$_{6}$