Name,formula,Property Molar Mass,Property Molar Mass units,Property Melting Point,Property Melting Point units,Property Density,Property Density units,Property Boiling Point,Property Boiling Point units,Property Solubility
Acetylenediol,C$_{2}$H$_{2}$O$_{2}$,58.07,g/mol,,,,,,,
CP-615 003,,,,,,,,,,
Rose oxide,C$_{10}$H$_{18}$O,154.25,g/mol,,,,,,,
Sodium aluminium sulfate,NaAl(SO$_{4}$)$_{2}$.12H$_{2}$O,458.28,g/mol,61,$^{\circ}$C,,,,,208
Thiosulfuric acid,H$_{2}$S$_{2}$O$_{3}$,114.14,g/mol,decomposes below 0,$^{\circ}$C,,,,,decomposes
Bisoctrizole,C$_{41}$H$_{50}$N$_{6}$O$_{2}$,658.88,g/mol,195.7,$^{\circ}$C,,,,,
Clamoxyquine,C$_{17}$H$_{24}$ClN$_{3}$O,,,,,,,,,
Methanesulfonyl fluoride,CH$_{3}$FO$_{2}$S,,,,,,,123-124,$^{\circ}$C,Reacts
Montelukast,C$_{35}$H$_{36}$ClNO$_{3}$S,,,,,,,,,
Rifapentine,C$_{47}$H$_{64}$N$_{4}$O$_{12}$,,,,,,,,,
Codoxime,C$_{20}$H$_{24}$N$_{2}$O$_{5}$,,,,,,,,,
Novobiocin,C$_{31}$H$_{36}$N$_{2}$O,,,,,,,,,
Ioglycamic acid,,,,,,,,,,
JD5037,chemical_formulaC27H27Cl2N5O3S,,,,,,,,,
Rubidium oxide,Rb$_{2}$O,,,>500,$^{\circ}$C,4,g/cm$^{3}$,,,Reacts violently to give RbOH
Khellin,C$_{14}$H$_{12}$O$_{5}$,,,,,,,,,
Vincoline,C$_{21}$H$_{24}$N$_{2}$O$_{4}$,,,,,,,,,
Leflunomide,C$_{12}$H$_{9}$F$_{3}$N$_{2}$O$_{2}$,,,,,,,,,
Tenecteplase,C$_{2561}$H$_{3919}$N$_{747}$O$_{781}$S$_{40}$,,,,,,,,,
Camostat,C$_{20}$H$_{22}$N$_{4}$O$_{5}$,,,,,,,,,
Flor$\beta$ben (18F),C$_{21}$H$_{26}$FNO$_{3}$,,,,,,,,,
Tolidine,C$_{14}$H$_{16}$N$_{2}$,,,129,$^{\circ}$C,1.23,g/cm$^{3}$,300.5,$^{\circ}$C,1.3
Tetrahydroxy-1 4-benzoquinone biscarbonate,C$_{8}$O$_{8}$,224.08,g/mol,,,,,,,
Triacetone amine,C$_{9}$H$_{17}$NO,155.23,g/mol,43,$^{\circ}$C,,,205,$^{\circ}$C,
Divicine,C$_{4}$H$_{6}$N$_{4}$O$_{2}$,,,,,,,,,Soluble in 10% KOH
Actinium(III) oxide,Ac$_{2}$O$_{3}$,,,,,,,,,
Azepane,C$_{6}$H$_{13}$N,,,,,0.825,g/cm$^{3}$,142.666,$^{\circ}$C,
TAN-67,C$_{23}$H$_{25}$N$_{3}$O,,,,,,,,,
Mercury telluride,HgTe,328.19,g/mol,,,8.1,g/cm$^{3}$,,,
Carboquone,C$_{15}$H$_{19}$N$_{3}$O$_{5}$,,,,,,,,,
Spirotryprostatin A,C$_{22}$H$_{25}$N$_{3}$O$_{4}$,395.43,g/mol,,,,,,,
Lithium carbonate,Li$_{2}$CO$_{3}$,,,723,$^{\circ}$C,2.11,g/cm$^{3}$,1310,$^{\circ}$C,1.54
Benzo(a)fluoranthene,C$_{20}$H$_{12}$,,,144-145,$^{\circ}$C,,,,,
Pimeclone,C$_{12}$H$_{21}$NO,,,,,,,,,
Tetanus vaccine,,,,,,,,,,
Ro 04-6790,,,,,,,,,,
Chlorotrifluoroethylene,C$_{2}$F$_{3}$Cl,,,-158.2,$^{\circ}$C,,,-27.8,$^{\circ}$C,4.01
Pramlintide,C$_{171}$H$_{269}$N$_{51}$O$_{53}$S$_{2}$,,,,,,,,,
Miconazole,C$_{18}$H$_{14}$Cl$_{4}$N$_{2}$O,,,,,,,,,
Itaconic acid,C$_{5}$H$_{6}$O$_{4}$,,,162,$^{\circ}$C,1.63,g/cm$^{3}$,,,1
Mercury(I) hydride,HgH,,,,,,,,,
MMDA (drug),,,,,,,,,,
Allyl iodide,C$_{3}$H$_{5}$I,,,-99,$^{\circ}$C,1.837,g/cm$^{3}$,101,$^{\circ}$C,
EAM-2201,C$_{26}$H$_{26}$FNO,,,,,,,,,
Granatin A,C$_{34}$H$_{24}$O$_{22}$,784.54,g/mol,,,,,,,
Lithium tantalate,LiTaO$_{3}$,235.887,g/mol,1650,$^{\circ}$C,,,,,
Almitrine,C$_{26}$H$_{29}$F$_{2}$N$_{7}$,,,181,$^{\circ}$C,,,,,
Silver behenate,AgC$_{22}$H$_{43}$O$_{2}$,447.2287,g/mol,,,,,,,
Norbadione A,C$_{35}$H$_{18}$O$_{15}$,,,300,$^{\circ}$C,1.902,g/cm$^{3}$,,,
Didecyldimethylammonium chloride,C$_{22}$H$_{48}$ClN,362.08,g/mol,,,0.95,g/cm$^{3}$,,,
Phenazopyridine,C$_{11}$H$_{11}$N$_{5}$,,,,,,,,,
SPANphos,C$_{47}$H$_{46}$O$_{2}$P$_{2}$,704.814,g/mol,,,,,,,
Polyhydroxyethylmethacrylate,(C$_{6}$H$_{10}$O$_{3}$)$_{n}$,,,,,,,,,
Cobalt(II) fluoride,CoF$_{2}$,96.93,g/mol,1217,$^{\circ}$C,4.46,g/cm$^{3}$,1400,$^{\circ}$C,1.4
Anakinra,C$_{759}$H$_{1186}$N$_{208}$O$_{232}$S$_{10}$,,,,,,,,,
Propane-1 2 3-tricarboxylic acid,C$_{6}$H$_{8}$O$_{6}$,176.12,g/mol,,,,,,,sl. in water
Magnesium lactate,,,,,,,,,,
Dimethyl telluride,C$_{2}$H$_{6}$Te,,,-10,$^{\circ}$C,,,82,$^{\circ}$C,
E-55888,C$_{16}$H$_{23}$N$_{3}$,,,,,,,,,
Barbigerone,C$_{23}$H$_{22}$O$_{6}$,394,g/mol,,,,,,,
Orciprenaline,C$_{11}$H$_{17}$NO$_{3}$,,,,,,,,,
Amygdalin,C$_{20}$H$_{27}$NO,,,,,,,,,
Allylnorpethidine,C$_{17}$H$_{23}$NO$_{2}$,,,,,,,,,
Seproxetine,C$_{16}$H$_{16}$F$_{3}$NO,,,,,,,,,
Sabcomeline,C$_{10}$H$_{15}$N$_{3}$O,,,,,,,,,
Pigment yellow 139,C$_{16}$H$_{9}$N$_{5}$O$_{6}$,,,,,1.742,g/cm$^{3}$,,,
Cobamamide,C$_{72}$H$_{100}$CoN$_{18}$O$_{17}$P,,,,,,,,,
Sodium iodide,NaI,149.89,g/mol,661,$^{\circ}$C,3.67,g/cm$^{3}$,1304,$^{\circ}$C,158.7
Nifedipine,C$_{17}$H$_{18}$N$_{2}$O$_{6}$,,,,,,,,,
Diisopromine,C$_{21}$H$_{29}$N,,,,,,,,,
Chlorcyclizine,C$_{18}$H$_{21}$ClN$_{2}$,,,,,,,,,
Picotamide,C$_{21}$H$_{20}$N$_{4}$O$_{3}$,,,,,,,,,
Setoperone,C$_{21}$H$_{24}$FN$_{3}$O$_{2}$S,401.50,g/mol,,,,,,,
Benorilate,C$_{17}$H$_{15}$NO$_{5}$,,,,,,,,,
Proheptazine,C$_{17}$H$_{25}$NO$_{2}$,,,,,,,,,
Pirimicarb,C$_{11}$H$_{18}$N$_{4}$O$_{2}$,238.29,g/mol,,,,,,,
Potassium dithionite,K$_{2}$O$_{4}$S$_{2}$,206.32,g/mol,,,,,,,
Benactyzine,C$_{20}$H$_{25}$NO$_{3}$,,,,,,,,,
NVP-AUY922,C$_{26}$H$_{31}$N$_{3}$O$_{5}$,,,,,,,,,
Flor$\beta$pir (18F),C$_{20}$H$^{18}_{25}$FN$_{2}$O$_{3}$,,,,,,,,,
Gadolinium(III) nitrate,Gd(NO$_{3}$)$_{3}$,343.26,g/mol,91,$^{\circ}$C,2.3,g/cm$^{3}$,,,Soluble
Olopatadine,C$_{21}$H$_{23}$NO$_{3}$,,,,,,,,,
JTE-907,C$_{24}$H$_{26}$N$_{2}$O$_{6}$,,,,,,,,,
Chromium(IV) chloride,CrCl$_{4}$,193.807,g/mol,,,,,,,
Manganese(IV) fluoride,MnF$_{4}$,,,70,$^{\circ}$C,,,,,reacts violently
Lithium oxide,Li$_{2}$O,29.88,g/mol,1438,$^{\circ}$C,2.013,g/cm$^{3}$,2600,$^{\circ}$C,reacts violently to form LiOH
Triazene,H$_{3}$N$_{3}$,,,,,,,,,
P-Anisidine,C$_{7}$H$_{9}$NO,123.15,g/mol,56-59,$^{\circ}$C,,,243,$^{\circ}$C,soluble
Cimetropium bromide,,,,,,,,,,
Flutazolam,C$_{19}$H$_{18}$ClFN$_{2}$O$_{3}$,,,,,,,,,
Tipifarnib,C$_{27}$H$_{22}$Cl$_{2}$N$_{4}$O,,,,,,,,,
Arbutin,C$_{12}$H$_{16}$O$_{7}$,,,199.5,$^{\circ}$C,,,,,5.0
Ro48-6791,C$_{21}$H$_{25}$FN$_{6}$O$_{2}$,,,,,,,,,
Methyl isopropyl ketone,C$_{5}$H$_{10}$O,86.13,g/mol,-92,$^{\circ}$C,0.803,g/cm$^{3}$,92,$^{\circ}$C,6
Wortmannin,C$_{23}$H$_{24}$O$_{8}$,428.43186,g/mol,238-242,$^{\circ}$C,,,,,
NESS-0327,C$_{24}$H$_{23}$Cl$_{3}$N$_{4}$O,,,,,,,,,
Gentamicin,C$_{21}$H$_{43}$N$_{5}$O$_{7}$,,,,,,,,,
Levonorgestrel,C$_{21}$H$_{28}$O$_{2}$,,,,,,,,,
Acetanisole,C$_{9}$H$_{10}$O$_{2}$,,,38.5,$^{\circ}$C,1.094,g/cm$^{3}$,258,$^{\circ}$C,2470
Cycloserine,C$_{3}$H$_{6}$N$_{2}$O$_{2}$,,,,,,,,,
Peracetic acid,C$_{2}$H$_{4}$O$_{3}$,76.05,g/mol,0,$^{\circ}$C,,,25,$^{\circ}$C,
Ruthenium pentafluoride,F$_{5}$Ru,,,86.5,$^{\circ}$C,3.82,g/cm$^{3}$,,,
Tetrazepam,C$_{16}$H$_{17}$ClN$_{2}$O,,,,,,,,,
Phosphorus pentachloride,PCl$_{5}$,,,166.8,$^{\circ}$C,2.1,g/cm$^{3}$,160.5,$^{\circ}$C,decomposition
Lathosterol,C$_{27}$H$_{46}$O,386.65,g/mol,,,,,,,
EDMA,C$_{12}$H$_{17}$NO$_{2}$,,,,,,,,,
Phendimetrazine,C$_{12}$H$_{17}$NO,,,,,,,,,
Dextrin,(C$_{6}$H$_{10}$O$_{5}$)$_{n}$,,,,,,,,,
O-Xylene,C$_{8}$H$_{10}$,,,-24,$^{\circ}$C,,,144.4,$^{\circ}$C,0.02% (20$^{\circ}$C)
Malonyl-CoA,C$_{24}$H$_{38}$N$_{7}$O$_{19}$P$_{3}$S,,,,,,,,,
Ketanserin,C$_{22}$H$_{22}$FN$_{3}$O$_{3}$,,,,,,,,,
AM-1241,C$_{22}$H$_{22}$IN$_{3}$O$_{3}$,,,,,,,,,
Nicotinamide adenine dinucleotide,C$_{21}$H$_{27}$N$_{7}$O$_{14}$P$_{2}$,663.43,g/mol,160,$^{\circ}$C,,,,,
Mestranol,C$_{21}$H$_{26}$O$_{2}$,,,,,,,,,
Piclamilast,C$_{18}$H$_{18}$Cl$_{2}$N$_{2}$O$_{3}$,,,,,,,,,
Lithium 12-hydroxystearate,C$_{18}$H$_{35}$LiO$_{3}$,,,>200,$^{\circ}$C,,,,,
Dehydroretinal,C$_{20}$H$_{26}$O,282.42,g/mol,,,,,,,
Chromium(III) 2-ethylhexanoate,C$_{24}$H$_{45}$CrO$_{6}$,481.6,g/mol,,,,,,,soluble in mineral spirits
Boron trifluoride,BF$_{3}$,67.82,g/mol,-126.8,$^{\circ}$C,0.00276,g/cm$^{3}$,-100.3,$^{\circ}$C,exothermic decomposition
Ethoprop,C$_{8}$H$_{19}$O$_{2}$PS$_{2}$,,,,,,,,,
Meclinertant,C$_{32}$H$_{31}$ClN$_{4}$O$_{5}$,,,,,,,,,
Xylulose,C$_{5}$H$_{10}$O$_{5}$,150.13,g/mol,,,,,,,
Potassium dichromate,K$_{2}$Cr$_{2}$O$_{7}$,294.185,g/mol,398,$^{\circ}$C,,,500,$^{\circ}$C,4.9
Ethylnorepinephrine,C$_{10}$H$_{15}$NO$_{3}$,,,,,,,,,
Tabimorelin,C$_{32}$H$_{40}$N$_{4}$O$_{3}$,,,,,,,,,
Carbomycin,C$_{13}$H$_{24}$N$_{4}$O$_{3}$S,,,,,,,,,
Mesna,C$_{2}$H$_{5}$NaO$_{3}$S$_{2}$,,,,,,,,,
Pentachlorophenol,C$_{6}$HCl$_{5}$O,,,190-191,$^{\circ}$C,,,309-310,$^{\circ}$C,0.020
Rubrene,C$_{42}$H$_{28}$,532.7,g/mol,315,$^{\circ}$C,,,,,
Teprenone,C$_{23}$H$_{38}$O,,,,,,,,,
BRL-50481,C$_{9}$H$_{12}$N$_{2}$O$_{4}$S,,,,,,,,,
Fluorescein,C$_{20}$H$_{12}$O$_{5}$,,,314,$^{\circ}$C,,,,,Slightly
Glyoxal,C$_{2}$H$_{2}$O$_{2}$,58.04,g/mol,15,$^{\circ}$C,1.27,g/cm$^{3}$,51,$^{\circ}$C,
Clomifene,C$_{26}$H$_{28}$ClNO,,,,,,,,,
Lithium azide,LiN$_{3}$,,,115,$^{\circ}$C,,,,,
Triphenylmethane,C$_{19}$H$_{16}$,244.33,g/mol,92-94,$^{\circ}$C,1.014,g/cm$^{3}$,359,$^{\circ}$C,insoluble
Nonanal,C$_{9}$H$_{18}$O,,,-18,$^{\circ}$C,,,191,$^{\circ}$C,Insoluble
HEPES,C$_{8}$H$_{18}$N$_{2}$O$_{4}$S,238.3012,g/mol,,,,,,,40
Sodium selenate,Na$_{2}$SeO$_{4}$,,,,,3.098,g/cm$^{3}$,,,soluble
L-selectride,C$_{12}$H$_{28}$BLi,190.10,g/mol,,,,,,,
Alphenal,C$_{13}$H$_{12}$N$_{2}$O$_{3}$,,,,,,,,,
Ioglicic acid,,,,,,,,,,
Dioctyl terephthalate,C$_{24}$H$_{38}$O$_{4}$,,,,,,,400,$^{\circ}$C,
Propiconazole,C$_{15}$H$_{17}$Cl$_{2}$N$_{3}$O$_{2}$,,,,,,,180,$^{\circ}$C,100
BMY-7 378,,,,,,,,,,
Aluminium antimonide,AlSb,148.742,g/mol,1060,$^{\circ}$C,4.26,g/cm$^{3}$,2467,$^{\circ}$C,insoluble
Clopamide,C$_{14}$H$_{20}$ClN$_{3}$O$_{3}$S,,,,,,,,,
Adatanserin,C$_{21}$H$_{31}$N$_{5}$O,,,,,,,,,
Citric acid,C$_{6}$H$_{8}$O$_{7}$,,,156,$^{\circ}$C,1.665,g/cm$^{3}$,310,$^{\circ}$C,117.43
Tricetinidin,C$_{15}$H$_{11}$O$^{+}_{6}$(Cl$^{-}$),322.69,g/mol,,,,,,,
Rabeprazole,C$_{18}$H$_{21}$N$_{3}$O$_{3}$S,,,,,,,,,
RTI-112,C$_{17}$H$_{22}$ClNO$_{2}$,,,,,,,,,
Dibenz(a j)anthracene,C$_{22}$H$_{14}$,,,196,$^{\circ}$C,,,,,
Diiron nonacarbonyl,Fe$_{2}$C$_{9}$O$_{9}$,363.78,g/mol,decomposes at 100,$^{\circ}$C,2.08,g/cm$^{3}$,,,insoluble
G418,C$_{20}$H$_{40}$N$_{4}$O$_{10}$,,,,,,,,,50
Lithium diisopropylamide,C$_{6}$H$_{14}$LiNorLiN(C$_{3}$H$_{7}$)$_{2}$,107.1233,g/mol,,,0.79,g/cm$^{3}$,,,Reacts with water
Osmium dioxide,OsO$_{2}$,222.229,g/mol,500,$^{\circ}$C,11.4,g/cm$^{3}$,,,
Bentazepam,C$_{17}$H$_{16}$N$_{2}$OS,,,,,,,,,
Chlorotrifluoromethane,CClF$_{3}$,104.46,g/mol,-181,$^{\circ}$C,1.526,g/cm$^{3}$,-81.5,$^{\circ}$C,0.009
Perflubron,C$_{8}$F$_{17}$Br,,,6,$^{\circ}$C,1.93,g/cm$^{3}$,142,$^{\circ}$C,
Erbulozole,C$_{24}$H$_{27}$N$_{3}$O$_{5}$S,,,,,,,,,
Tefibazumab,C$_{6548}$H$_{10122}$N$_{1730}$O$_{2034}$S$_{44}$,,,,,,,,,
Neopentyl alcohol,C$_{5}$H$_{12}$O,,,52.5,$^{\circ}$C,,,113.5,$^{\circ}$C,36
Estazolam,C$_{16}$H$_{11}$ClN$_{4}$,,,,,,,,,
Guanidine nitrate,CH$_{6}$N$_{4}$O$_{3}$,,,213,$^{\circ}$C,1.436,g/cm$^{3}$,,,160
Neochlorogenic acid,C$_{16}$H$_{18}$O$_{9}$,,,,,,,,,
Alpha-Methylstyrene,C$_{9}$H$_{10}$,,,-24,$^{\circ}$C,0.91,g/cm$^{3}$,165,$^{\circ}$C,Insoluble
Chrysoine resorcinol,C$_{12}$H$_{9}$N$_{2}$NaO$_{5}$S,,,,,,,,,Partially soluble
Urotensin-II,C$_{64}$H$_{85}$N$_{13}$O$_{18}$S$_{2}$,1388.6,g/mol,,,,,,,
Iotrolan,C$_{37}$H$_{48}$I$_{6}$N$_{6}$O$_{18}$,,,,,,,,,
Phenylephrine,C$_{9}$H$_{13}$NO$_{2}$,,,,,,,,,
Sodium bis(trimethylsilyl)amide,C$_{6}$H$_{18}$NNaSi$_{2}$,183.37,g/mol,171,$^{\circ}$C,,,170,$^{\circ}$C,
Rhodocene,C$_{10}$H$_{10}$Rh,,,174,$^{\circ}$C,,,,,somewhat soluble in dichloromethane
Anandamide,C$_{22}$H$_{37}$NO$_{2}$,347.53,g/mol,,,,,,,
Bifenox,C$_{14}$H$_{9}$Cl$_{2}$NO$_{5}$,,,85,$^{\circ}$C,,,,,0.35
Tapentadol,C$_{14}$H$_{23}$NO,,,,,,,,,
Tetrahydroharman,C$_{12}$H$_{14}$N$_{2}$,186.25296,g/mol,,,,,,,
Jasmonic acid,C$_{12}$H$_{18}$O$_{3}$,210.27,g/mol,,,,,160,$^{\circ}$C,
Tetraethylene glycol dimethyl ether,C$_{10}$O$_{5}$H$_{22}$,,,-30,$^{\circ}$C,,,275,$^{\circ}$C,
Bis(triphenylphosphine)iminium chloride,C$_{36}$H$_{30}$ClNP$_{2}$,574.03,g/mol,260-262,$^{\circ}$C,,,,,moderate
Pseudaconitine,C$_{36}$H$_{51}$NO$_{12}$,,,202,$^{\circ}$C,,,,,
Heterocodeine,C$_{18}$H$_{21}$NO$_{3}$,,,,,,,,,
Metanephrine,C$_{10}$H$_{15}$NO$_{3}$,197.231,g/mol,,,,,,,
DiI,C$_{59}$H$_{97}$ClN$_{2}$O$_{4}$,,,68,$^{\circ}$C,,,,,
Pyrroloquinoline quinone,C$_{14}$H$_{6}$N$_{2}$O$_{8}$,,,,,1.963,g/cm$^{3}$,,,
Potassium bicarbonate,KHCO$_{3}$,100.115,g/mol,292,$^{\circ}$C,2.17,g/cm$^{3}$,,,33.7
Morphine-3-glucuronide,C$_{23}$H$_{27}$NO$_{9}$,461.462,g/mol,,,,,,,
Melanocyte-inhibiting factor,,,,,,,,,,
Phenolphthalein,C$_{20}$H$_{14}$O$_{4}$,,,258-263,$^{\circ}$C,1.277,g/cm$^{3}$,,,
Clebopride,C$_{20}$H$_{24}$ClN$_{3}$O$_{2}$,,,,,,,,,
Protoporphyrin IX,C$_{34}$H$_{34}$N$_{4}$O$_{4}$,562.658,g/mol,,,,,,,
Bunazosin,C$_{19}$H$_{27}$N$_{5}$O$_{3}$,,,,,,,,,
CI-966,C$_{23}$H$_{21}$F$_{6}$NO$_{3}$,,,,,,,,,
Normorphine,C$_{16}$H$_{17}$NO$_{3}$,,,,,,,,,
LY-310762,C$_{24}$H$_{27}$FN$_{2}$O$_{2}$,,,,,,,,,
Potassium sulfide,K$_{2}$S,110.262,g/mol,840,$^{\circ}$C,1.74,g/cm$^{3}$,912,$^{\circ}$C,
Gold monoiodide,AuI,323.871,g/mol,,,8.25,g/cm$^{3}$,,,
Reversine,C$_{21}$H$_{27}$N$_{7}$O,,,,,,,,,
Sibutramine,C$_{17}$H$_{26}$ClN,,,,,,,,,
Amarogentin,C$_{29}$H$_{30}$O$_{13}$,,,,,,,,,
N-Formylmethionine-leucyl-phenylalanine,C$_{21}$H$_{31}$N$_{3}$O$_{5}$S,437.55,g/mol,,,,,,,
Lichesterol,C$_{28}$H$_{44}$O,,,,,,,,,
Methylcobalamin,C$_{63}$H$_{91}$CoN$_{13}$O$_{14}$P,,,,,,,,,
Orange B,C$_{22}$H$_{16}$N$_{4}$Na$_{2}$O$_{9}$S$_{2}$,590.49,g/mol,,,,,,,
O-823,C$_{23}$H$_{27}$NO$_{2}$,,,,,,,,,
Aviculin,C$_{26}$H$_{34}$O$_{10}$,506.54,g/mol,,,,,,,
Metrifonate,C$_{4}$H$_{8}$Cl$_{3}$O$_{4}$P,,,,,,,,,
Diketene,C$_{4}$H$_{4}$O$_{2}$,,,-7,$^{\circ}$C,,,127,$^{\circ}$C,
Ytterbium(III) sulfate,Yb$_{2}$(SO$_{4}$)$_{3}$,,,,,,,,,
Fluorenone,C$_{13}$H$_{8}$O,,,83.5,$^{\circ}$C,1.13,g/cm$^{3}$,342,$^{\circ}$C,Insoluble
Intriptyline,C$_{21}$H$_{19}$N,,,,,,,,,
Izonsteride,C$_{24}$H$_{26}$N$_{2}$OS$_{2}$,,,,,,,,,
Thorium(IV) carbide,ThC,244.049,g/mol,2500,$^{\circ}$C,,,,,
Enpiperate,C$_{20}$H$_{23}$NO$_{3}$,,,,,,,,,
Hydroxybenzotriazole,C$_{6}$H$_{5}$N$_{3}$O,,,156-159,$^{\circ}$C,,,,,
Phenprobamate,C$_{10}$H$_{13}$NO$_{2}$,,,,,,,,,
Sodium nitrate,NaNO$_{3}$,84.9947,g/mol,308,$^{\circ}$C,,,380,$^{\circ}$C,73
Mercury(II) nitrate,Hg(NO$_{3}$)$_{2}$,324.60,g/mol,79,$^{\circ}$C,4.3,g/cm$^{3}$,,,soluble
Ruthenium tetroxide,RuO$_{4}$,165.07,g/mol,25.4,$^{\circ}$C,3.29,g/cm$^{3}$,40.0,$^{\circ}$C,
Vasicine,C$_{11}$H$_{12}$N$_{2}$O,,,210,$^{\circ}$C,,,,,
Dithiazanine iodide,,,,,,,,,,
Dehydroepiandrosterone sulfate,C$_{19}$H$_{28}$O$_{5}$S,368.49,g/mol,,,,,,,
Epitestosterone,C$_{19}$H$_{28}$O$_{2}$,,,,,,,,,
Trimethyl phosphate,(CH$_{3}$)$_{3}$PO$_{4}$,,,-46,$^{\circ}$C,,,197,$^{\circ}$C,good
Syringol,C$_{8}$H$_{10}$O$_{3}$,154.16,g/mol,50-57,$^{\circ}$C,,,261,$^{\circ}$C,Slightly soluble
Scillavone B,C$_{18}$H$_{18}$O$_{7}$,346.33,g/mol,,,,,,,
Policresulen,chemical_formula(C$_{9}$H$_{8}$O$_{4}$S)$_{n}$,,,,,,,,,
Cetyl alcohol,C$_{16}$H$_{34}$O,,,49.3,$^{\circ}$C,0.811,g/cm$^{3}$,344,$^{\circ}$C,insoluble
Oxyresveratrol,C$_{14}$H$_{12}$O$_{4}$,244.24,g/mol,,,,,,,
Dihydrocapsaicin,C$_{18}$H$_{29}$NO$_{3}$,307.43,g/mol,,,,,,,Sparingly soluble
Methimazole,C$_{4}$H$_{6}$N$_{2}$S,,,,,,,,,
Acetylmorphone,C$_{19}$H$_{21}$NO$_{4}$,,,,,,,,,
Eplivanserin,C$_{19}$H$_{21}$FN$_{2}$O$_{2}$,,,,,,,,,
Triethylenemelamine,C$_{9}$H$_{12}$N$_{6}$,,,,,,,,,
Phenyl acetate,C$_{8}$H$_{8}$O$_{2}$,,,50,$^{\circ}$C,,,195-196,$^{\circ}$C,
Gallium(III) sulfide,Ga$_{2}$S$_{3}$,235.644,g/mol,1090,$^{\circ}$C,3.77,g/cm$^{3}$,,,
Daclizumab,C$_{6332}$H$_{9808}$N$_{1678}$O$_{1989}$S$_{42}$,,,,,,,,,
Azaspiracid,C$_{18}$H$_{24}$O$_{5}$,,,,,,,,,
Batimastat,C$_{23}$H$_{31}$N$_{3}$O$_{4}$S$_{2}$,,,,,,,,,
Alfatradiol,C$_{18}$H$_{24}$O$_{2}$,,,,,,,,,
Iron(III) fluoride,FeF$_{3}$,112.840,g/mol,>1000,$^{\circ}$C,3.87,g/cm$^{3}$,,,slightly soluble
RTI-274,C$_{21}$H$_{22}$FNO$_{3}$,,,,,,,,,
Cinepazet,C$_{20}$H$_{28}$N$_{2}$O$_{6}$,,,,,1.172,g/cm$^{3}$,,,
Dalbergichromene,C$_{16}$H$_{14}$O$_{3}$,254.28,g/mol,,,,,,,
Dihydroimidazol-2-ylidene,C$_{3}$H$_{6}$N$_{2}$,,,,,,,,,
Enzalutamide,C$_{21}$H$_{16}$F$_{4}$N$_{4}$O$_{2}$S,,,,,,,,,
Uranium pentafluoride,UF$_{5}$,333.02,g/mol,,,,,,,
Alfentanil,C$_{21}$H$_{32}$N$_{6}$O$_{3}$,,,,,,,,,
Zinc sulfate,ZnSO$_{4}$,161.47,g/mol,680,$^{\circ}$C,3.54,g/cm$^{3}$,740,$^{\circ}$C,57.7
Octadecanal,C$_{18}$H$_{36}$O,,,38,$^{\circ}$C,,,320,$^{\circ}$C,insoluble
Vismodegib,C$_{19}$H$_{14}$Cl$_{2}$N$_{2}$O$_{3}$S,,,,,,,,,
Perfluorooctanesulfonyl fluoride,C$_{8}$F$_{18}$O$_{2}$S,502.12,g/mol,,,,,154,$^{\circ}$C,
MMDMA (drug),,,,,,,,,,
Hexafluorosilicic acid,H$_{2}$SiF$_{6}$,,,ca. 19,$^{\circ}$C,1.22,g/cm$^{3}$,108.5,$^{\circ}$C,miscible
Peginterferon alfa-2b,,,,,,,,,,
Tomopenem,C$_{23}$H$_{35}$N$_{7}$O$_{6}$S,537.64,g/mol,,,,,,,
Panaxatriol,C$_{30}$H$_{52}$O$_{4}$,476.73,g/mol,,,,,,,
Interferon $\gamma$,C$_{761}$H$_{1206}$N$_{214}$O$_{225}$S$_{6}$,,,,,,,,,
Xylazine,C$_{12}$H$_{16}$N$_{2}$S,,,,,,,,,
Sodium carbonate,Na$_{2}$CO$_{3}$,105.9888,g/mol,851,$^{\circ}$C,2.54,g/cm$^{3}$,,,Decahydrate:
Antrafenine,C$_{30}$H$_{26}$F$_{6}$N$_{4}$O$_{2}$,,,,,,,,,
Carbonyl sulfide,COS,60.075,g/mol,-138.8,$^{\circ}$C,,,-50.2,$^{\circ}$C,0.376
SYBR Safe,C$_{28}$H$_{28}$N$_{2}$O$_{3}$S$_{2}$,504.66,g/mol,,,,,,,
BOM (psychedelic),C$_{12}$H$_{19}$NO$_{4}$,241.28,g/mol,,,,,,,
Methionine sulfoxide,C$_{5}$H$_{11}$NO$_{3}$S,,,,,,,,,
Mesabolone,C$_{26}$H$_{40}$O$_{3}$,400.59,g/mol,,,,,,,
Ibogamine,C$_{19}$H$_{24}$N$_{2}$,,,,,,,,,
Benzylpiperazine,C$_{11}$H$_{16}$N$_{2}$,,,,,,,,,
Cepharanoline,C$_{36}$H$_{36}$N$_{2}$O$_{6}$,,,,,,,,,
Oxatriquinacene,C$_{9}$H$_{9}$O,,,,,,,,,
Polymethylhydrosiloxane,(CH$_{3}$(H)SiO)$_{n}$,,,,,1.06,g/cm$^{3}$,,,
Biocytin,C$_{16}$H$_{28}$N$_{4}$O$_{4}$S,,,~245,$^{\circ}$C,,,,,
Amikacin,C$_{22}$H$_{43}$N$_{5}$O$_{13}$,,,,,,,,,
Anthracene,C$_{14}$H$_{10}$,,,215.76,$^{\circ}$C,1.28,g/cm$^{3}$,339.9,$^{\circ}$C,0.022
Edoxaban,C$_{24}$H$_{30}$ClN$_{7}$O$_{4}$S,,,,,,,,,
Sodium arsenate,H$_{24}$Na$_{3}$AsO$_{16}$(dodecahydrate),423.9,g/mol,,,1.517,g/cm$^{3}$,,,soluble
S-444 823,,,,,,,,,,
Aplindore,C$_{18}$H$_{18}$N$_{2}$O$_{3}$,,,,,,,,,
EDTMP,C$_{6}$H$_{20}$N$_{2}$O$_{12}$P$_{4}$,,,,,,,,,limited
Xanthosine monophosphate,C$_{10}$H$_{13}$N$_{4}$O$_{9}$P,364.206,g/mol,,,,,,,
Silver oxalate,Ag$_{2}$C$_{2}$O$_{4}$,303.755,g/mol,961.9,$^{\circ}$C,5.03,g/cm$^{3}$,2212,$^{\circ}$C,3.27010$^{-3}$ g/100mL
Amanullin,C$_{39}$H$_{54}$N$_{10}$O$_{12}$S,886.86,g/mol,,,,,,,Soluble
Linoleyl alcohol,C$_{18}$H$_{34}$O,,,,,,,,,
Carpipramine,C$_{28}$H$_{38}$N$_{4}$O,,,,,,,,,
Cyclobutanetetrone,C$_{4}$O$_{4}$,,,,,,,,,
Chrysanthenone,C$_{10}$H$_{14}$O,150.22,g/mol,,,,,,,
Phosphorus triiodide,PI$_{3}$,411.68717,g/mol,61.2,$^{\circ}$C,4.18,g/cm$^{3}$,200,$^{\circ}$C,Decomposes
Histidine,C$_{6}$H$_{9}$N$_{3}$O$_{2}$,,,,,,,,,4.19g/100g @ 25
Dihydroartemisinin,C$_{15}$H$_{24}$O$_{5}$,,,,,,,,,
Odalasvir,chemical_formulaC$_{60}$H$_{72}$N$_{8}$O$_{6}$,,,,,,,,,
Cefotiam,C$_{18}$H$_{23}$N$_{9}$O$_{4}$S$_{3}$,,,,,,,,,
Salicylaldehyde,C$_{7}$H$_{6}$O$_{2}$,122.12,g/mol,-7,$^{\circ}$C,1.146,g/cm$^{3}$,196-197,$^{\circ}$C,
Palmatine,C$_{21}$H$_{22}$NO$^{+}_{4}$,352.4083,g/mol,,,1.23,g/cm$^{3}$,482.9,$^{\circ}$C,
Chloralodol,C$_{8}$H$_{15}$Cl$_{3}$O$_{3}$,,,,,,,,,
Sulfide,S$^{2-}$,,,,,,,,,
Cetirizine,C$_{21}$H$_{25}$ClN$_{2}$O$_{3}$,,,,,,,,,
KF-26777,C$_{16}$H$_{18}$BrN$_{5}$O,,,,,,,,,
Cadmium fluoride,CdF$_{2}$,150.41,g/mol,1110,$^{\circ}$C,,,1748,$^{\circ}$C,4.35
Fludiazepam,C$_{16}$H$_{12}$ClFN$_{2}$O,,,,,,,,,
Methanediol,CH$_{4}$O$_{2}$,,,,,,,194,$^{\circ}$C,
L-838 417,,,,,,,,,,
Strontium ranelate,,,,,,,,,,
Arfendazam,C$_{18}$H$_{17}$ClN$_{2}$O$_{3}$,,,,,,,,,
Styrene,C$_{8}$H$_{8}$,104.15,g/mol,-30,$^{\circ}$C,0.909,g/cm$^{3}$,145,$^{\circ}$C,0.03% (20$^{\circ}$C)
Rapacuronium,C37H61N2O4charge+,,,,,,,,,
Ozonide,O$_{3}$,,,,,,,,,
Tert-Butyl acetate,C$_{6}$H$_{12}$O$_{2}$,,,,,0.8593,g/cm$^{3}$,97.8,$^{\circ}$C,0.8
Methyl methanesulfonate,C$_{2}$H$_{6}$O$_{3}$S,110.13,g/mol,,,,,202-203,$^{\circ}$C,
Gallium trichloride,GaCl$_{3}$,,,77.9,$^{\circ}$C,,,201,$^{\circ}$C,very soluble
Uranyl acetate,UO$_{2}$(CH$_{3}$COO)$_{2}$(anhydrous),424.146,g/mol,decomposes at 80,$^{\circ}$C,2.89,g/cm$^{3}$,,,
Perfluorodecalin,C$_{10}$F$_{18}$,,,,,,,142,$^{\circ}$C,10
Methanesulfonyl chloride,CH$_{3}$ClO$_{2}$S,,,,,,,161,$^{\circ}$C,Reacts
Lomerizine,C$_{27}$H$_{30}$F$_{2}$N$_{2}$O$_{3}$,,,,,,,,,
PF-592 379,,,,,,,,,,
Nitronium tetrafluoroborate,BNO$_{2}$F$_{4}$,,,,,,,,,
Bitolterol,C$_{28}$H$_{31}$NO$_{5}$,,,,,,,,,
DAA-1106,C$_{23}$H$_{22}$FNO$_{4}$,,,,,,,,,