Name,formula,Property Molar Mass,Property Molar Mass units,Property Melting Point,Property Melting Point units,Property Density,Property Density units,Property Boiling Point,Property Boiling Point units,Property Solubility
Potassium chloride,KCl,,,770,$^{\circ}$C,1.984,g/cm$^{3}$,1420,$^{\circ}$C,281
Lysidine (chemical),C$_{4}$H$_{8}$N$_{2}$,84.12,g/mol,87,$^{\circ}$C,,,,,
Chiefs of Brunapeg,NH$_{3}$,17.031,g/mol,-77.73,$^{\circ}$C,,,-33.34,$^{\circ}$C,47%
Ocfentanil,C$_{22}$H$_{27}$FN$_{2}$O$_{2}$,,,,,,,,,
GW501516,C$_{21}$H$_{18}$F$_{3}$NO$_{3}$S$_{2}$,,,,,,,,,
Aranidipine,C$_{19}$H$_{20}$N$_{2}$O$_{7}$,,,,,,,,,
RDX,C$_{3}$H$_{6}$O$_{6}$N$_{6}$,,,205.5,$^{\circ}$C,1.82,g/cm$^{3}$,234,$^{\circ}$C,insoluble
Cerium(III) methanesulfonate,Ce(CH$_{3}$SO$_{3}$)$_{3}$,461.46,g/mol,,,,,,,
Rhodamine 123,C$_{21}$H$_{17}$ClN$_{2}$O$_{3}$,,,,,,,,,
Dihydralazine,C$_{8}$H$_{10}$N$_{6}$,,,,,,,,,
Halofuginone,C$_{16}$H$_{17}$BrClN$_{3}$O$_{3}$,,,,,,,,,
Perfluorooctanesulfonic acid,C$_{8}$HF$_{17}$O$_{3}$S,500.13,g/mol,,,,,133,$^{\circ}$C,
Cyproterone acetate,,,,,,,,,,
Inaperisone,C$_{16}$H$_{23}$NO,,,,,,,,,
Bromazine,C$_{17}$H$_{20}$BrNO,,,,,,,,,
Isoetarine,C$_{13}$H$_{21}$NO$_{3}$,,,,,,,,,
Germanium dichloride,GeCl$_{2}$,143.546,g/mol,,,,,,,
Diisodecyl phthalate,C$_{28}$H$_{46}$O$_{4}$,,,-50,$^{\circ}$C,,,250-257,$^{\circ}$C,
Acetophenazine,C$_{23}$H$_{29}$N$_{3}$O$_{2}$S,,,,,,,,,
Bafilomycin,C$_{35}$H$_{58}$O$_{9}$,622.83,g/mol,,,,,,,
Dimethylheptylpyran,C$_{25}$H$_{38}$O$_{2}$,,,,,,,,,
Octyl glucoside,C$_{14}$H$_{28}$O$_{6}$,292.37,g/mol,,,,,,,
Aminoethylethanolamine,C$_{4}$H$_{12}$N$_{2}$O,104.15,g/mol,-28,$^{\circ}$C,1.03,g/cm$^{3}$,243,$^{\circ}$C,
Cathine,C$_{9}$H$_{13}$NO,,,,,,,,,
Formebolone,C$_{21}$H$_{28}$O$_{4}$,344.44,g/mol,,,,,543.6,$^{\circ}$C,
Iodosobenzene,C$_{6}$H$_{5}$IO,,,210,$^{\circ}$C,,,,,poor
Lopinavir,C$_{37}$H$_{48}$N$_{4}$O$_{5}$,,,,,,,,,
Tametraline,C$_{17}$H$_{19}$N,,,,,,,,,
Lithium (medication),,,,,,,,,,
Cannabidiol,C$_{21}$H$_{30}$O$_{2}$,,,,,,,,,
Profadol,C$_{14}$H$_{21}$NO,,,,,,,,,
Fenmetramide,C$_{11}$H$_{13}$NO$_{2}$,,,,,,,,,
Thunberginol A,C$_{15}$H$_{10}$O$_{5}$,270.23,g/mol,,,,,,,
Rhenium hexafluoride,ReF$_{6}$,,,18.5,$^{\circ}$C,,,33.7,$^{\circ}$C,
Orientin,C$_{21}$H$_{20}$O$_{11}$,448.38,g/mol,,,,,,,
Fenobucarb,C$_{12}$H$_{17}$NO$_{2}$,,,,,,,,,insoluble
Chromium(II) fluoride,CrF$_{2}$,,,894,$^{\circ}$C,3.79,g/cm$^{3}$,,,
Ceftezole,C$_{13}$H$_{12}$N$_{8}$O$_{4}$S$_{3}$,,,,,,,,,
Leucine,C$_{6}$H$_{13}$NO$_{2}$,,,,,,,,,
Candocuronium iodide,,,,,,,,,,
Chunganenol,C$_{85}$H$_{64}$O$_{18}$,,,,,,,,,
Bryoamaride,C$_{36}$H$_{54}$O$_{12}$,,,,,,,,,
Gantacurium chloride,,,,,,,,,,
Oleoylethanolamide,C$_{20}$H$_{39}$NO$_{2}$,,,59-60,$^{\circ}$C,,,,,
Sulfadiazine,C$_{10}$H$_{10}$N$_{4}$O$_{2}$S,,,,,,,,,
Urodilatin,C$_{145}$H$_{234}$N$_{52}$O$_{44}$S$_{3}$,,,,,,,,,
Ustekinumab,C$_{6482}$H$_{10004}$N$_{1712}$O$_{2016}$S$_{46}$,,,,,,,,,
Org 21465,,,,,,,,,,
Gevotroline,C$_{19}$H$_{20}$FN$_{3}$,,,,,,,,,
Antimony triselenide,Sb$_{2}$Se$_{3}$,480.4,g/mol,611,$^{\circ}$C,,,,,
Ethyl methyl cellulose,"[C$_{6}$H$_{7}$O$_{2}$(OH)$_{x}$(OCH$_{3}$)$_{y}$(OC$_{2}$H$_{5}$)$_{z}$]$_{n}$,z0.57-0.8,y0.2-0.4,x3-(x+y)",30000-40000,g/mol,,,,,,,
Adenosine thiamine diphosphate,C$_{22}$H$_{28}$N$_{9}$O$_{10}$P$_{2}$S$^{-}$,674.50,g/mol,,,,,,,
Zilpaterol,C$_{14}$H$_{19}$N$_{3}$O$_{2}$,,,,,,,,,
Gallium antimonide,GaSb,191.483,g/mol,712,$^{\circ}$C,5.614,g/cm$^{3}$,,,insoluble
Lithium orotate,,,,,,,,,,
Fenoldopam,C$_{16}$H$_{16}$ClNO$_{3}$,,,,,,,,,
Lunularic acid,C$_{15}$H$_{14}$O$_{4}$,258.27,g/mol,,,,,,,
Auraptene,C$_{19}$H$_{22}$O$_{3}$,298.376,g/mol,,,,,,,
Methyl anisate,C$_{9}$H$_{10}$O$_{3}$,,,48-51,$^{\circ}$C,,,244-245,$^{\circ}$C,
Naringenin,C$_{15}$H$_{12}$O$_{5}$,,,,,,,,,
Cyproheptadine,C$_{21}$H$_{21}$N,,,,,,,,,
Saredutant,C$_{31}$H$_{35}$Cl$_{2}$N$_{3}$O$_{2}$,,,,,,,,,
Ethosuximide,C$_{7}$H$_{11}$NO$_{2}$,,,,,,,,,
Dihydroxymethylidene,CH$_{2}$O$_{2}$,,,,,,,,,
Dichlorprop,C$_{9}$H$_{8}$Cl$_{2}$O$_{3}$,235.064,g/mol,116,$^{\circ}$C,,,,,
Prasugrel,C$_{20}$H$_{20}$FNO$_{3}$S,,,,,,,,,
Pyridine-N-oxide,C$_{5}$H$_{5}$NO,,,65-66,$^{\circ}$C,,,270,$^{\circ}$C,high
Chanoclavine,C$_{16}$H$_{20}$N$_{2}$O,256.34,g/mol,,,,,,,
Methiodal,CH$_{2}$INaO$_{3}$S,,,,,,,,,
Bis(benzene)chromium,C$_{12}$H$_{12}$Cr,208.22,g/mol,284-285,$^{\circ}$C,,,,,
Isothiazole,C$_{3}$H$_{3}$NS,,,,,,,114,$^{\circ}$C,
Bakelite,(C$_{6}$H$_{6}$O.CH$_{2}$O)$_{n}$,,,,,,,,,
Propargyl bromide,MgC$_{2}$O$_{4}$MgC$_{2}$O$_{4}$.2H$_{2}$O(Dihydrate),,,-61.1,$^{\circ}$C,,,89,$^{\circ}$C,Insoluble
Indometacin farnesil,,,,,,,,,,
Phenylethylmalonamide,C$_{11}$H$_{14}$N$_{2}$O$_{2}$,206.24,g/mol,,,,,,,
Crystal violet,C$_{25}$N$_{3}$H$_{30}$Cl,,,205,$^{\circ}$C,,,,,
Copper(II) acetate,Cu(CH$_{3}$COO)$_{2}$,181.63,g/mol,115,$^{\circ}$C,1.882,g/cm$^{3}$,240,$^{\circ}$C,monohydrate:   7.2
Cobalt(II) carbonate,CoCO$_{3}$,,,427,$^{\circ}$C,4.13,g/cm$^{3}$,,,negligible
Butyl acetate,C$_{6}$H$_{12}$O$_{2}$,,,-78,$^{\circ}$C,0.8825,g/cm$^{3}$,126.1,$^{\circ}$C,0.68
Triiodide,I$^{3-}$,,,,,,,,,
Chlorin,C$_{20}$H$_{16}$N$_{4}$,,,,,,,,,
Aluminium oxide,Al$_{2}$O$_{3}$,,,2072,$^{\circ}$C,3.95-4.1,g/cm$^{3}$,2977,$^{\circ}$C,insoluble
Sabarubicin,C$_{32}$H$_{37}$NO$_{13}$,,,,,,,,,
Fenoxazoline,C$_{13}$H$_{18}$N$_{2}$O,,,,,,,,,
Dipicolylamine,C$_{12}$H$_{13}$N$_{3}$,,,139-141,$^{\circ}$C,1.107,g/cm$^{3}$,,,
Pradofloxacin,C$_{21}$H$_{21}$FN$_{4}$O$_{3}$,,,,,,,,,
Hyperforin,C$_{35}$H$_{52}$O$_{4}$,,,,,,,,,
Dorzolamide,C$_{10}$H$_{16}$N$_{2}$O$_{4}$S$_{3}$,,,,,,,,,
Sorbitan monostearate,C$_{24}$H$_{46}$O$_{6}$,430.62,g/mol,,,,,,,
Tributyltin oxide,C$_{24}$H$_{54}$OSn$_{2}$,,,-45,$^{\circ}$C,,,180,$^{\circ}$C,0.002
Vedolizumab,C$_{6528}$H$_{10072}$N$_{1732}$O$_{2042}$S$_{42}$,,,,,,,,,
Sodium myreth sulfate,CH$_{3}$(CH$_{2}$)$_{12}$CH$_{2}$(OCH$_{2}$CH$_{2}$)$_{n}$OSO$_{3}$Na,448.590,g/mol,,,,,,,
N-Desalkylflurazepam,C$_{15}$H$_{10}$ClFN$_{2}$O,,,205,$^{\circ}$C,,,,,
ADB-FUBINACA,C$_{21}$H$_{23}$FN$_{4}$O$_{2}$,,,,,,,,,
Butein,C$_{15}$H$_{12}$O$_{5}$,272.25,g/mol,,,,,,,
Mitraphylline,C$_{21}$H$_{24}$N$_{2}$O$_{4}$,368.1736,g/mol,,,,,,,
Ethiofencarb,C$_{11}$H$_{15}$NO$_{2}$S,,,33.4,$^{\circ}$C,1.231,g/cm$^{3}$,,,1.82
Lornoxicam,C$_{13}$H$_{10}$ClN$_{3}$O$_{4}$S$_{2}$,,,,,,,,,
Gallium acetylacetonate,GaC$_{15}$H$_{21}$O$_{6}$,,,,,1.42,g/cm$^{3}$,,,
TCB-2,C$_{11}$H$_{14}$BrNO$_{2}$,,,,,,,,,
Ramelteon,C$_{16}$H$_{21}$NO$_{2}$,,,,,,,,,
NS-398,C$_{13}$H$_{18}$N$_{2}$O$_{5}$S,,,,,,,,,Insoluble
Vorinostat,C$_{14}$H$_{20}$N$_{2}$O$_{3}$,,,,,,,,,
Vidalenolone,C$_{13}$H$_{14}$O$_{4}$,234.25,g/mol,,,,,,,
P-Toluenesulfonic acid,CH$_{3}$C$_{6}$H$_{4}$SO$_{3}$H,172.20,g/mol,38,$^{\circ}$C,1.24,g/cm$^{3}$,140,$^{\circ}$C,67
DDT,C$_{14}$H$_{9}$Cl$_{5}$,,,108.5,$^{\circ}$C,0.99,g/cm$^{3}$,260,$^{\circ}$C,1
Tris(8-hydroxyquinolinato)aluminium,C$_{27}$H$_{18}$AlN$_{3}$O$_{3}$,,,>300,$^{\circ}$C,,,,,insoluble in water
SB-742457,C$_{19}$H$_{19}$N$_{3}$O$_{2}$S,,,,,,,,,
Aluminium hydroxide,Al(OH)$_{3}$,78.00,g/mol,300,$^{\circ}$C,,,,,0.0001
S33005,C$_{18}$H$_{27}$NO$_{2}$,,,,,,,,,
Durantin A,C$_{22}$H$_{20}$O$_{9}$,428.39,g/mol,,,,,,,
Nitrendipine,C$_{18}$H$_{20}$N$_{2}$O$_{6}$,,,,,,,,,
Tetrabromoethane,C$_{2}$H$_{2}$Br$_{4}$,,,,,,,,,630
Cephaeline,C$_{28}$H$_{38}$N$_{2}$O$_{4}$,,,,,,,,,
Ranimustine,C$_{10}$H$_{18}$ClN$_{3}$O$_{7}$,,,,,,,,,
Erythritol,C$_{4}$H$_{10}$O$_{4}$,,,121,$^{\circ}$C,1.45,g/cm$^{3}$,329,$^{\circ}$C,
Cyprodenate,C$_{13}$H$_{25}$NO$_{2}$,,,,,,,,,
Asulam,C$_{8}$H$_{10}$N$_{2}$O$_{4}$S,230.241,g/mol,,,,,,,
Altrose,C$_{6}$H$_{12}$O$_{6}$,,,103,$^{\circ}$C,,,,,
N N'-Di-2-butyl-1 4-phenylenediamine,C$_{14}$H$_{24}$N$_{2}$,220.354,g/mol,,,,,,,
PRL-8-53,C$_{18}$H$_{21}$NO$_{2}$,,,,,,,,,
Deoxycytidine triphosphate,C$_{9}$H$_{16}$N$_{3}$O$_{13}$P$_{3}$,,,,,,,,,
Procarbazine,C$_{12}$H$_{19}$N$_{3}$O,,,,,,,,,
SR-144 528,,,,,,,,,,
N-Methyl-2-pyrrolidone,C$_{5}$H$_{9}$NO,,,-24,$^{\circ}$C,1.028,g/cm$^{3}$,202,$^{\circ}$C,
Trichlormethiazide,C$_{8}$H$_{8}$Cl$_{3}$N$_{3}$O$_{4}$S$_{2}$,,,,,,,,,
Dibenzoylmethane,C$_{15}$H$_{12}$O$_{2}$,224.25,g/mol,77-78,$^{\circ}$C,,,,,
Dehydroacetic acid,C$_{8}$H$_{8}$O$_{4}$,,,,,,,,,
Dimethyltubocurarinium chloride,,,,,,,,,,
Polyvinyl chloride acetate,(C$_{2}$H$_{3}$Cl)$_{n}$(C$_{4}$H$_{6}$O$_{2}$)$_{m}$,,,,,,,,,
Org 25935,,,,,,,,,,
Tomatine,C$_{50}$H$_{83}$NO$_{21}$,,,,,,,,,
Xanthorhamnin,C$_{34}$H$_{42}$O$_{20}$,770.68,g/mol,,,,,,,
Aceclofenac,C$_{16}$H$_{13}$Cl$_{2}$NO$_{4}$,,,,,,,,,
Coniferyl aldehyde,C$_{10}$H$_{10}$O$_{3}$,178.18,g/mol,80,$^{\circ}$C,,,338.8,$^{\circ}$C,
Bromperidol,C$_{21}$H$_{23}$BrFNO$_{2}$,,,,,,,,,
S-15535,C$_{21}$H$_{24}$N$_{2}$O$_{2}$,,,,,,,,,
Pancratistatin,C$_{14}$H$_{15}$NO$_{8}$,,,,,,,,,
N-Methylmaleimide,C$_{5}$H$_{5}$NO$_{2}$,,,94-96,$^{\circ}$C,,,,,
Phosphorus trioxide,P$_{4}$O$_{6}$,,,23.8,$^{\circ}$C,2.135,g/cm$^{3}$,173.1,$^{\circ}$C,reacts
Veltuzumab,C$_{6458}$H$_{9918}$N$_{1706}$O$_{2026}$S$_{46}$,,,,,,,,,
Sulfametoxydiazine,C$_{11}$H$_{12}$N$_{4}$O$_{3}$S,,,,,,,,,
Chlorthiamide,C$_{7}$H$_{5}$Cl$_{2}$NS,,,,,1.473,g/cm$^{3}$,,,
Eritoran,C$_{66}$H$_{126}$N$_{2}$O$_{19}$P$_{2}$,,,,,,,,,
Etacrynic acid,,,,,,,,,,
Tasosartan,C$_{23}$H$_{21}$N$_{7}$O,,,,,,,,,
Cefazolin,C$_{14}$H$_{14}$N$_{8}$O$_{4}$S$_{3}$,,,,,,,,,
Para-Chlorophenylpiperazine,C$_{10}$H$_{13}$ClN$_{2}$,,,,,,,,,
Dipyrocetyl,C$_{11}$H$_{10}$O$_{6}$,,,148,$^{\circ}$C,,,,,Insoluble
Nitrate,NO$^{-}_{3}$,,,,,,,,,
N-Butylamine,C$_{4}$H$_{11}$N,,,,,,,,,Miscible
Sodium gluconate,C$_{6}$H$_{11}$NaO$_{7}$,,,,,,,,,59
Betahydroxythiofentanyl,C$_{20}$H$_{26}$N$_{2}$O$_{2}$S,,,,,,,,,
Tripropylene,C$_{9}$H$_{18}$,,,,,,,,,very low
Methylethyl ketone oxime,C$_{4}$H$_{9}$NO,,,-15,$^{\circ}$C,0.923,g/cm$^{3}$,152,$^{\circ}$C,
Glycolic acid,C$_{2}$H$_{4}$O$_{3}$,76.05,g/mol,75,$^{\circ}$C,1.49,g/cm$^{3}$,,,
Combretol,C$_{20}$H$_{20}$O$_{8}$,388.36,g/mol,,,,,,,
Metaescaline,C$_{12}$H$_{19}$NO$_{3}$,225.284,g/mol,,,,,,,
Isobornyl cyclohexanol,C$_{16}$H$_{28}$O,,,,,,,302,$^{\circ}$C,
CB-13,C$_{26}$H$_{24}$O$_{2}$,,,,,,,,,
Sulfacytine,C$_{12}$H$_{14}$N$_{4}$O$_{3}$S,,,,,,,,,
Tris(tert-butoxy)silanethiol,C$_{12}$H$_{28}$O$_{3}$SSi,,,,,,,113-115,$^{\circ}$C,
Sulfathiazole,C$_{9}$H$_{9}$N$_{3}$O$_{2}$S$_{2}$,,,,,,,,,
Sodium ascorbate,C$_{6}$H$_{7}$NaO$_{6}$,,,218,$^{\circ}$C,,,,,62
Sinapine,C$_{16}$H$_{24}$NO$_{5}$,,,,,,,,,
Fusafungine,C$_{29}$H$_{51}$N$_{2}$O$_{8}$,,,,,,,,,
Kedarcidin,C$_{53}$H$_{60}$ClN$_{3}$O$_{16}$,,,,,,,,,
Mercury selenide,HgSe,279.55,g/mol,,,8.3,g/cm$^{3}$,,,insoluble
Emamectin,C$_{49}$H$_{75}$NO$_{13}$,,,141,$^{\circ}$C,,,,,30-50
Sodium tetradecyl sulfate,,,,,,,,,,
Amoxicillin,C$_{16}$H$_{19}$N$_{3}$O$_{5}$S,,,,,,,,,
PPADS,C$_{14}$H$_{14}$N$_{3}$O$_{12}$PS$_{2}$,,,,,,,,,100
Migrastatin,C$_{27}$H$_{39}$NO$_{7}$,489.60,g/mol,,,,,,,
Ethyl iodide,C$_{2}$H$_{5}$I,,,,,,,,,Miscible
Glutathione disulfide,C$_{20}$H$_{32}$N$_{6}$O$_{12}$S$_{2}$,612.631,g/mol,,,,,,,
Tretoquinol,C$_{19}$H$_{23}$NO$_{5}$,345.39,g/mol,,,,,,,
Magnesium iodide,MgI$_{2}$(anhydrous),278.1139,g/mol,637,$^{\circ}$C,4.43,g/cm$^{3}$,,,54.7
Eglumegad,C$_{8}$H$_{11}$NO$_{4}$,,,,,,,,,
Methacrylonitrile,C$_{4}$H$_{5}$N,,,-35.8,$^{\circ}$C,,,90,$^{\circ}$C,2.57
Allylestrenol,C$_{21}$H$_{32}$O,,,,,,,,,
Ammonium tetrathiomolybdate,H$_{8}$N$_{2}$MoS$_{4}$,260.28,g/mol,decomp ~ 155,$^{\circ}$C,,,,,
Alazocine,C$_{17}$H$_{23}$NO,,,,,,,,,
ODE-CDV,C$_{28}$H$_{54}$N$_{3}$O$_{7}$P,,,,,,,,,
Adefovir,C$_{8}$H$_{12}$N$_{5}$O$_{4}$P,,,,,,,,,
Brexpiprazole,C$_{25}$H$_{27}$N$_{3}$O$_{2}$S,,,,,,,,,
Danofloxacin,C$_{19}$H$_{20}$FN$_{3}$O$_{3}$,,,,,,,,,
Potassium niobate,KNbO$_{3}$,,,,,4.640,g/cm$^{3}$,,,
Tetrakis(triphenylphosphine)palladium(0),C$_{72}$H$_{60}$P$_{4}$Pd,,,decomposes around 115,$^{\circ}$C,,,,,Insoluble
EuFOD,C$_{30}$H$_{30}$EuF$_{21}$O$_{6}$,1037.49,g/mol,203-207,$^{\circ}$C,,,,,
Pentafluoroethyl iodide,C$_{2}$F$_{5}$I,245.918,g/mol,,,,,,,
Boron trichloride,BCl$_{3}$,117.17,g/mol,-107.3,$^{\circ}$C,1.326,g/cm$^{3}$,12.6,$^{\circ}$C,decomposes
Xaliproden,C$_{24}$H$_{22}$F$_{3}$N,,,,,,,,,
Michellamine,C$_{46}$H$_{48}$N$_{2}$O$_{8}$,,,,,,,,,
Pyrrolnitrin,C$_{10}$H$_{6}$Cl$_{2}$N$_{2}$O$_{2}$,,,,,,,,,
Belimumab,C$_{6714}$H$_{10428}$O$_{2102}$S$_{52}$,,,,,,,,,
Tolimidone,C$_{11}$H$_{10}$N$_{2}$O$_{2}$,,,,,,,,,
Minigastrin,C$_{70}$H$_{91}$N$_{15}$O$_{26}$,1558.56,g/mol,,,,,,,
Boldenone,C$_{19}$H$_{26}$O$_{2}$,,,,,,,,,
Potassium bromate,KBrO$_{3}$,167.00,g/mol,350,$^{\circ}$C,3.27,g/cm$^{3}$,370,$^{\circ}$C,3.1
Leuprorelin,C$_{59}$H$_{84}$N$_{16}$O$_{12}$,,,,,,,,,
Dolutegravir,C$_{20}$H$_{19}$F$_{2}$N$_{3}$O$_{5}$,,,,,,,,,
Morphine methylbromide,,,,,,,,,,
Diphosgene,C$_{2}$Cl$_{4}$O$_{2}$,197.82,g/mol,-57,$^{\circ}$C,1.65,g/cm$^{3}$,128,$^{\circ}$C,insol.
Episterol,C$_{28}$H$_{46}$O,398.66,g/mol,,,,,,,
Sulfamoxole,C$_{11}$H$_{13}$N$_{3}$O$_{3}$S,,,,,,,,,
Catechin-5-O-glucoside,C$_{21}$H$_{24}$O,,,,,,,,,
Dinonylnaphthylsulfonic acid,C$_{28}$H$_{44}$O$_{3}$S,,,259.5,$^{\circ}$C,,,600.4,$^{\circ}$C,
SKF-97 541,,,,,,,,,,
JWH-057,C$_{25}$H$_{38}$O,,,,,,,,,
Ethallobarbital,C$_{9}$H$_{12}$N$_{2}$O$_{3}$,,,,,,,,,
Trimethylsilyldiazomethane,C$_{4}$H$_{10}$N$_{2}$Si,,,,,,,,,
Vancomycin,C$_{66}$H$_{75}$Cl$_{2}$N$_{9}$O$_{24}$,,,,,,,,,
Gallamine triethiodide,,,,,,,,,,
Papulacandin B,C$_{47}$H$_{64}$O$_{17}$,901.00,g/mol,,,,,,,
Cilansetron,C$_{20}$H$_{21}$N$_{3}$O,,,,,,,,,
Efungumab,C$_{6330}$H$_{9748}$N$_{1672}$O$_{1668}$S$_{48}$,,,,,,,,,
Methyl cinnamate,C$_{10}$H$_{10}$O$_{2}$,,,34-38,$^{\circ}$C,1.092,g/cm$^{3}$,261-262,$^{\circ}$C,Insoluble
Tamarixetin,C$_{16}$H$_{12}$O$_{7}$,,,307,$^{\circ}$C,,,,,
Methoxsalen,C$_{12}$H$_{8}$O$_{4}$,,,,,,,,,
Nupharamine,C$_{15}$H$_{25}$NO$_{2}$,251.36,g/mol,,,,,,,
Org 37 684,,,,,,,,,,
Sisomicin,C$_{19}$H$_{37}$N$_{5}$O$_{7}$,,,,,,,,,
Dysprosium(III) oxide,Dy$_{2}$O$_{3}$,372.998,g/mol,2408,$^{\circ}$C,7.80,g/cm$^{3}$,,,Negligible
Crofelemer,chemical_formula(C$_{15}$O$_{6@comma@7}$H$_{12}$)$_{n}$,,,,,,,,,
Trypan blue,C$_{34}$H$_{28}$N$_{6}$O$_{14}$S$_{4}$,,,300,$^{\circ}$C,,,,,<0.1
Triclosan,C$_{12}$H$_{7}$Cl$_{3}$O$_{2}$,,,55-57,$^{\circ}$C,1.49,g/cm$^{3}$,120,$^{\circ}$C,
Isomescaline,C$_{11}$H$_{17}$NO$_{3}$,211.260,g/mol,,,,,,,
Prazepam,C$_{19}$H$_{17}$ClN$_{2}$O,,,,,,,,,
Matrine,C$_{15}$H$_{24}$N$_{2}$O,,,,,,,,,
D-161,C$_{25}$H$_{27}$NO$_{2}$,,,,,,,,,
Bezitramide,C$_{31}$H$_{32}$N$_{4}$O$_{2}$,,,,,,,,,
Amurensin K,C$_{56}$H$_{40}$O$_{13}$,920.91,g/mol,,,,,,,
N-Vinylcarbazole,C$_{14}$H$_{11}$N,,,66,$^{\circ}$C,,,154-155,$^{\circ}$C,insoluble
Chlorobutanol,C$_{4}$H$_{7}$Cl$_{3}$O,,,95-99,$^{\circ}$C,,,167,$^{\circ}$C,Slightly soluble
Lithopone,BaSO$_{4}$ZnS,330.80,g/mol,,,,,,,Insoluble
Phorate,C$_{7}$H$_{17}$O$_{2}$PS$_{3}$,,,,,,,,,0.005% (20$^{\circ}$C)
Umirolimus,C$_{55}$H$_{87}$NO$_{14}$,,,,,,,,,
Cariprazine,C$_{21}$H$_{32}$Cl$_{2}$N$_{4}$O,,,,,,,,,
Elcatonin,C$_{148}$H$_{244}$N$_{42}$O$_{47}$,,,,,,,,,
LY-404 187,,,,,,,,,,
Tiospirone,C$_{24}$H$_{32}$N$_{4}$O$_{2}$S,,,,,,,,,
Diphenylamine,C$_{12}$H$_{11}$N,169.23,g/mol,53,$^{\circ}$C,1.2,g/cm$^{3}$,302,$^{\circ}$C,0.03%
Cryptopine,C$_{21}$H$_{23}$NO$_{5}$,,,,,,,,,
Bephenium hydroxynaphthoate,,,,,,,,,,
Phorbol,C$_{20}$H$_{28}$O$_{6}$,364.44,g/mol,250-251,$^{\circ}$C,,,,,
Pipecolic acid,C$_{6}$H$_{11}$NO$_{2}$,,,,,,,,,
P7C3,C$_{21}$H$_{18}$Br$_{2}$N$_{2}$O,,,,,,,,,
Spiramycin,C$_{43}$H$_{74}$N$_{2}$O$_{14}$,,,,,,,,,"Insoluble in water, Very soluble in acetonitrile and methanol"
Sulfene,CH$_{2}$SO$_{2}$,,,,,,,,,
Silane,H$_{4}$Si,,,-185,$^{\circ}$C,,,-112,$^{\circ}$C,Reacts slowly
Bromoanisole,C$_{7}$H$_{7}$OBr,187.036,g/mol,10,$^{\circ}$C,,,223,$^{\circ}$C,
JWH-161,C$_{27}$H$_{33}$NO$_{2}$,,,,,,,,,
Ipodate sodium,,,,168-169,$^{\circ}$C,,,,,
Sodium fumarate,C$_{4}$H$_{2}$Na$_{2}$O$_{4}$,160.04,g/mol,,,,,,,
Cobalt(III) oxide,Co$_{2}$O$_{3}$,165.8646,g/mol,1900,$^{\circ}$C,5.18,g/cm$^{3}$,,,negligible
Tetraxenonogold(II),AuXe$_{4}$,,,,,,,,,
Azinphos-ethyl,C$_{12}$H$_{16}$N$_{3}$O$_{3}$PS$_{2}$,,,53,$^{\circ}$C,,,,,
Eldecalcitol,C$_{30}$H$_{50}$O$_{5}$,,,,,,,,,
Aminomethyl propanol,C$_{4}$H$_{11}$NO,,,,,,,,,"Miscible with water, soluble in alcohols"
Iobenzamic acid,,,,,,,,,,
Pyridoxine,C$_{8}$H$_{11}$NO$_{3}$,,,159-162,$^{\circ}$C,,,,,
Bromophenol blue,C$_{19}$H$_{10}$Br$_{4}$O$_{5}$S,,,273,$^{\circ}$C,,,279,$^{\circ}$C,
Thiopyrylium,C$_{5}$H$_{5}$S$^{+}$,97.16,g/mol,,,,,,,
Einsteinium(III) iodide,EsI$_{3}$,632.796,g/mol,,,,,,,
Punicacortein B,C$_{27}$H$_{22}$O$_{18}$,634.43,g/mol,,,,,,,
Pseudoephedrine,C$_{10}$H$_{15}$NO,,,,,,,,,
Dimethoate,C$_{5}$H$_{12}$NO$_{3}$PS$_{2}$,229.26,g/mol,43-45,$^{\circ}$C,,,117,$^{\circ}$C,2.5
Calcium(I) chloride,CaCl,75.53,g/mol,,,,,,,
RTI-83,C$_{18}$H$_{25}$NO$_{2}$,,,,,,,,,
Ammonium hexafluorophosphate,F$_{6}$H$_{4}$NP,,,,,,,,,74.8
Epiboxidine,C$_{10}$H$_{14}$N$_{2}$O,,,,,,,,,
Radezolid,C$_{22}$H$_{23}$FN$_{6}$O$_{3}$,,,,,,,,,
Chebulinic acid,C$_{41}$H$_{32}$O$_{27}$,956.67,g/mol,,,,,,,
Methionine,C$_{5}$H$_{11}$NO$_{2}$S,,,281,$^{\circ}$C,1.340,g/cm$^{3}$,,,Soluble
Anthrapurpurin,C$_{14}$H$_{8}$O$_{5}$,,,,,,,,,
O-2694,C$_{38}$H$_{60}$N$_{2}$O$_{5}$,,,,,,,,,
GSK-789 472,,,,,,,,,,
Butanethiol,C$_{4}$H$_{10}$S,,,-115.8,$^{\circ}$C,,,98.2,$^{\circ}$C,Slightly soluble (0.06% at 20$^{\circ}$C)
Amiflamine,C$_{12}$H$_{20}$N$_{2}$,,,,,,,,,
Nisoxetine,C$_{17}$H$_{21}$NO$_{2}$,,,,,,,,,
Coumatetralyl,C$_{19}$H$_{16}$O$_{3}$,292.33,g/mol,,,,,,,
Taxodone,C$_{20}$H$_{28}$O$_{3}$,,,176,$^{\circ}$C,,,,,Insoluble
Potassium trispyrazolylborate,C$_{9}$H$_{10}$BKN$_{6}$,,,188-189,$^{\circ}$C,,,,,
Starch,(C$_{6}$H$_{10}$O$_{5}$)N,,,,,1.5,g/cm$^{3}$,,,insoluble (see starch gelatinization)
Dirithromycin,C$_{42}$H$_{78}$N$_{2}$O$_{14}$,,,,,,,,,
Lithium sulfite,Li$_{2}$SO$_{3}$,,,,,,,,,
Plumbocene,C$_{10}$H$_{10}$Pb,,,,,,,150,$^{\circ}$C,
Apigenin,C$_{15}$H$_{10}$O$_{5}$,,,345-350,$^{\circ}$C,,,,,
Acetone,C$_{3}$H$_{6}$O,,,,,,,,,miscible
Semapimod,C$_{34}$H$_{56}$Cl$_{4}$N$_{18}$O$_{2}$,,,,,,,,,
Citiolone,C$_{6}$H$_{9}$NO$_{2}$S,,,,,,,,,
Ohmefentanyl,C$_{23}$H$_{30}$N$_{2}$O$_{2}$,,,,,,,,,
Niludipine,C$_{25}$H$_{34}$N$_{2}$O$_{8}$,,,,,,,,,
Aurone,C$_{15}$H$_{10}$O$_{2}$,,,,,,,,,
Methyl nitrate,CH$_{3}$NO$_{3}$,77.04,g/mol,-82.3,$^{\circ}$C,,,64.6,$^{\circ}$C,
Barbituric acid,C$_{4}$H$_{4}$N$_{2}$O$_{3}$,,,245,$^{\circ}$C,,,260,$^{\circ}$C,142
Carbon suboxide,C$_{3}$O$_{2}$,,,-111.3,$^{\circ}$C,,,6.8,$^{\circ}$C,reacts
Bethanechol,C$_{7}$H$_{17}$N$_{2}$O$_{2}$,,,,,,,,,
Lafutidine,C$_{22}$H$_{29}$N$_{3}$O$_{4}$S,,,,,,,,,
Chloralose,C$_{8}$H$_{11}$Cl$_{3}$O$_{6}$,,,176,$^{\circ}$C,,,,,
Retene,C$_{18}$H$_{18}$,,,98.5,$^{\circ}$C,,,390,$^{\circ}$C,
Alanosine,C$_{3}$H$_{7}$N$_{3}$O$_{4}$,,,,,,,,,
Propylparaben,C$_{10}$H$_{12}$O$_{3}$,180.2,g/mol,96-99,$^{\circ}$C,1.0630,g/cm$^{3}$,,,
Flavokavain A,C$_{18}$H$_{18}$O$_{5}$,,,,,,,,,
RS-102221,C$_{27}$H$_{33}$F$_{3}$N$_{4}$O$_{7}$S,,,,,,,,,
Quazepam,C$_{17}$H$_{11}$ClF$_{4}$N$_{2}$S,,,,,,,,,
Nile blue,C$_{20}$H$_{20}$ClN$_{3}$O,353.845,g/mol,,,,,,,
Dibutyltin dilaurate,C$_{32}$H$_{64}$O$_{4}$Sn,,,22-24,$^{\circ}$C,,,,,
Methylene diphenyl diisocyanate,C$_{15}$H$_{10}$N$_{2}$O$_{2}$,250.25,g/mol,40,$^{\circ}$C,,,314,$^{\circ}$C,Reacts
Cerberin,C$_{32}$H$_{48}$O$_{9}$,,,,,,,,,
Tilidine,C$_{17}$H$_{23}$NO$_{2}$,,,,,,,,,
Cilostazol,C$_{20}$H$_{27}$N$_{5}$O$_{2}$,,,,,,,,,
Poly(p-phenylene vinylene),(C$_{8}$H$_{6}$)$_{n}$,,,,,,,,,Insoluble
Oxamide,C$_{2}$H$_{4}$N$_{2}$O$_{2}$,88.0654,g/mol,,,1.667,g/cm$^{3}$,,,Soluble
Ketazocine,C$_{18}$H$_{23}$NO$_{2}$,,,,,,,,,
Fumonisin B1,C$_{34}$H$_{59}$NO$_{15}$,,,,,,,,,
Alpha-Methyltryptamine,C$_{11}$H$_{14}$N$_{2}$,,,,,,,,,
Maslinic acid,C$_{30}$H$_{48}$O$_{4}$,472.70,g/mol,,,,,,,
Sulfaguanidine,C$_{7}$H$_{10}$N$_{4}$O$_{2}$S,,,,,,,,,
Triclocarban,C$_{13}$H$_{9}$Cl$_{3}$N$_{2}$O,,,254,$^{\circ}$C,1.53,g/cm$^{3}$,,,
Resminostat,C$_{16}$H$_{19}$N$_{3}$O$_{4}$S,,,,,1.282,g/cm$^{3}$,,,
Oprelvekin,C$_{854}$H$_{1411}$N$_{253}$O$_{235}$S$_{2}$,,,,,,,,,
Trimethylolpropane,C$_{6}$H$_{14}$O$_{3}$,134.17,g/mol,58,$^{\circ}$C,,,289,$^{\circ}$C,
Levocetirizine,C$_{21}$H$_{25}$ClN$_{2}$O$_{3}$,,,,,,,,,
Indecainide,C$_{20}$H$_{24}$N$_{2}$O,,,,,,,,,
Ketocaine,C$_{18}$H$_{29}$NO$_{2}$,,,,,,,,,
Diclazepam,C$_{16}$H$_{12}$Cl$_{2}$N$_{2}$O,,,,,,,,,
Larotaxel,C$_{45}$H$_{53}$NO$_{14}$,,,,,,,,,