Property Melting Point,Property Density,Property Boiling Point,Property Solubility,Property Molar Mass,Name,formula
223,,,,,Polybutylene terephthalate,(C$_{12}$H$_{12}$O$_{4}$)$_{n}$
,,,,,L-371 257,
,,,,,Pleconaril,C$_{18}$H$_{18}$F$_{3}$N$_{3}$O$_{3}$
,,,,,Indinavir,C$_{36}$H$_{47}$N$_{5}$O$_{4}$
,,581.2,,,Ascofuranone,C$_{23}$H$_{29}$ClO$_{5}$
,,,,,Zometapine,C$_{14}$H$_{15}$ClN$_{4}$
,,,,331.222,Deoxyadenosine monophosphate,C$_{10}$H$_{14}$N$_{5}$O$_{6}$P
,,120,Reacts,,Tributyltin azide,C$_{12}$H$_{27}$N$_{3}$Sn
,,,soluble,172.15,Calcium malate,C$_{4}$H$_{4}$CaO$_{5}$
,,,,,Flutamide,C$_{11}$H$_{11}$F$_{3}$N$_{2}$O$_{3}$
69,,298,0.5,,Diphenylmethanol,C$_{13}$H$_{12}$O
,,,,,Flecainide,C$_{17}$H$_{20}$F$_{6}$N$_{2}$O$_{3}$
,,,,,Hydroxypethidine,C$_{15}$H$_{21}$NO$_{3}$
,,,,332.26,Europetin,C$_{16}$H$_{12}$O$_{8}$
65-67,,58,,117.15,Beta-Alanine ethyl ester,C$_{5}$H$_{11}$NO$_{2}$
,,,,,Diindenoperylene,C$_{32}$H$_{16}$
,,,,,Indatraline,C$_{16}$H$_{15}$Cl$_{2}$N
,,,,,Thiamine,C$_{12}$H$_{17}$N$_{4}$OS$^{+}$
,,,,,Aloglutamol,C$_{10}$H$_{24}$NO$_{12}$
,2.6-2.7,,negligible,457.838,Lanthanum carbonate,La$_{2}$(CO$_{3}$)$_{3}$
330-332,,,,,Jacobsen's catalyst,C$_{36}$H$_{52}$ClMnN$_{2}$O$_{2}$
,,,,,Milbemycin oxime,
,,,,,Flocoumafen,C$_{33}$H$_{25}$F$_{3}$O$_{4}$
,,,,646.496,Convallarin,C$_{34}$H$_{62}$O$_{11}$
110,,,,,Uranyl formate,(UO$_{2}$(CHO$_{2}$)$_{2}$.H$_{2}$O)
,,,,,Exatecan,C$_{24}$H$_{22}$FN$_{3}$O$_{4}$
-95,0.898,102,1.5,,Methyl butyrate,C$_{5}$H$_{10}$O$_{2}$
,,,,578.52,Procyanidin B1,C$_{30}$H$_{26}$O$_{12}$
,,,,,Difemetorex,C$_{20}$H$_{25}$NO
7.2,1.03,232.5,miscible,179.2,Hexamethylphosphoramide,C$_{6}$H$_{18}$N$_{3}$OP
1010,3.72,,113,570.0031,Praseodymium(III) sulfate,Pr$_{2}$(SO$_{4}$)$_{3}$
,,,,,Mapatumumab,C$_{6748}$H$_{10408}$N$_{1800}$O$_{2092}$S$_{52}$
,,,,196.106,Selenomethionine,C$_{5}$H$_{11}$NO$_{2}$Se
,,,,,HATU,C$_{10}$H$_{15}$F$_{6}$N$_{6}$OP
,,,,,Metampicillin,C$_{17}$H$_{19}$N$_{3}$O$_{4}$S
,,,,,Piroheptine,C$_{22}$H$_{25}$N
,,,,,Carburazepam,C$_{17}$H$_{16}$ClN$_{3}$O$_{2}$
12.5,,100,Insoluble,327.265,Pentacarbonylhydridorhenium,ReH(CO)$_{5}$
,,,,542.42,Theograndin I,C$_{21}$H$_{18}$O$_{15}$S
,4.85,,insoluble,256.26,Barium manganate,MnBaO$_{4}$
1720,,,,396.915,Samarium(III) sulfide,Sm$_{2}$S$_{3}$
,,,1.45,,Carbon dioxide,CO$_{2}$
,,,,288.25,Eriodictyol,C$_{15}$H$_{12}$O$_{6}$
,,,,,Levallorphan,C$_{19}$H$_{25}$NO
-110.48,1.494,23.77,1.1,,Trichlorofluoromethane,CCl$_{3}$F
,,,,,Delucemine,C$_{16}$H$_{17}$F$_{2}$N
,,,,331.2968,Malvidin,C$_{17}$H$_{15}$O$_{7}$+
,,,,,Doxefazepam,C$_{17}$H$_{14}$ClFN$_{2}$O$_{3}$
215,,360,insol,780.25,Vaska's complex,IrCl(CO)[P(C$_{6}$H$_{5}$)$_{3}$]$_{2}$.
,,,,,JWH-098,C$_{26}$H$_{27}$NO$_{2}$
,,,,,Cyclothiazide,C$_{14}$H$_{16}$ClN$_{3}$O$_{4}$S$_{2}$
,,,,,Reclazepam,C$_{18}$H$_{13}$Cl$_{2}$N$_{3}$O$_{2}$
,,,,,Pristanic acid,C$_{19}$H$_{38}$O$_{2}$
,,,,,Colfosceril palmitate,
,,,,,Gulose,C$_{6}$H$_{12}$O$_{6}$
,,,,,Morclofone,C$_{21}$H$_{24}$ClNO$_{5}$
,1.47,,,,Ailanthone,C$_{20}$H$_{24}$O$_{7}$
,,,"27,5",366.09,Uranyl sulfate,UO$_{2}$SO$_{4}$
95-98,,200,,132.12,Glutaric acid,C$_{5}$H$_{8}$O$_{4}$
,,,,,Vinylbital,C$_{11}$H$_{16}$N$_{2}$O$_{3}$
1940,,,,108.906,Niobium monoxide,NbO
,,,,,Hydron (chemistry),H$^{+}$
1130,4.02,,insoluble,214.88,Manganese(II) molybdate,MnMoO$_{4}$
,,,,,Licarbazepine,C$_{15}$H$_{14}$N$_{2}$O$_{2}$
,,,,,Norbuprenorphine,C$_{25}$H$_{35}$NO$_{4}$
,,,,174.155,Formiminoglutamic acid,C$_{6}$H$_{10}$N$_{2}$O$_{4}$
3230,4.52,,,69.489,Titanium diboride,TiB$_{2}$
,,,,838.854,Heme O,C$_{49}$H$_{58}$O$_{5}$N$_{4}$Fe
148-150,,,440,,Triclopyr,C$_{7}$H$_{4}$Cl$_{3}$NO$_{3}$
,,,,,Tazobactam,C$_{10}$H$_{12}$N$_{4}$O$_{5}$S
,,,,,Iobenguane,C$_{8}$H$_{10}$IN$_{3}$
,,,,,Eupatilin,C$_{18}$H$_{16}$O$_{7}$
-7.5,,248,Slightly Soluble,132.16,Cinnamaldehyde,C$_{9}$H$_{8}$O
92-93,1.725,200,14,474.3884,Potassium alum,KAl(SO$_{4}$)$_{2}$.12(H$_{2}$O)
,,,,492.16,Scandium(III) trifluoromethanesulfonate,C$_{3}$F$_{9}$O$_{9}$S$_{3}$Sc
,5.59,,,163.828,Yttrium(III) arsenide,YAs
155,1.08,,0.004,,Calcium stearate,C$_{36}$H$_{70}$CaO$_{4}$
,,,11.9% (20$^{\circ}$C),,Propionitrile,C$_{3}$H$_{5}$N
,,,,,RTI-371,C$_{24}$H$_{25}$ClN$_{2}$O
151,,364,,,Thianthrene,C$_{12}$H$_{8}$S$_{2}$
,,,,,Octopamine,C$_{8}$H$_{11}$NO$_{2}$
,,,,616.48,Balanophotannin D,C$_{28}$H$_{24}$O$_{16}$
,,,,,Para-Bromoamphetamine,C$_{9}$H$_{12}$BrN
,,,,,Ergocryptine,C$_{32}$H$_{41}$N$_{5}$O$_{5}$
,,,,214.22,Potassium erythorbate,C$_{6}$H$_{7}$KO$_{6}$
,,,Soluble,169.89,Sodium pertechnetate,NaTcO$_{4}$
,,,,254.15,Hexahydroxy-1 4-naphthalenedione,C$_{10}$H$_{6}$O$_{8}$
,,,,179.418,Sodium zincate,Na$_{2}$Zn(OH)$_{4}$
21,1.286,110-115,,,Tosyl azide,C$_{7}$H$_{7}$N$_{3}$O$_{2}$S
,,,insoluble,122.5,Iron boride,Fe$_{2}$B
,,,,,Hydrocortisone aceponate,
,,,,,Dibekacin,C$_{18}$H$_{37}$N$_{5}$O$_{8}$
,0.851,126,,98.14,Cis-3-Hexenal,C$_{6}$H$_{10}$O
,,,,,Triazolam,C$_{17}$H$_{12}$Cl$_{2}$N$_{4}$
54,,,,,Cetyl palmitate,C$_{32}$H$_{64}$O$_{2}$
,,,,,Olsalazine,C$_{14}$H$_{10}$N$_{2}$O$_{6}$
,,,,338,Glyceollin I,C$_{20}$H$_{18}$O$_{5}$
109,2.22,203,2,234.05,Monocalcium phosphate,CaH$_{4}$P$_{2}$O$_{8}$
,,,,208.21,Ethyl caffeate,C$_{11}$H$_{12}$O$_{4}$
,,,,,Ciclazindol,C$_{17}$H$_{15}$ClN$_{2}$O
,,,,,Eflornithine,C$_{6}$H$_{12}$F$_{2}$N$_{2}$O$_{2}$
,,,,,Abecarnil,C$_{24}$H$_{24}$N$_{2}$O$_{4}$
62.9,0.852,351-352,4.6,,Palmitic acid,C$_{16}$H$_{32}$O$_{2}$
,,110,,,VG (nerve agent),C$_{10}$H$_{24}$NO$_{3}$PS
350,2.3446,,0.00064,58.3197,Magnesium hydroxide,Mg(OH)$_{2}$
,,,,,Pimaric acid,C$_{20}$H$_{30}$O$_{2}$
,,,,,Pirenoxine,C$_{16}$H$_{8}$N$_{2}$O$_{5}$
,,,,,Prazitone,C$_{16}$H$_{19}$N$_{3}$O$_{3}$
,,,,,THC-O-acetate,C$_{23}$H$_{32}$O$_{3}$
,,,,,Oxyphenbutazone,C$_{19}$H$_{20}$N$_{2}$O$_{3}$
165,,,,167.16,Pyridoxal,C$_{8}$H$_{9}$NO$_{3}$
-57.5,0.91,37.7,Miscible,35.04,Ammonium hydroxide,NH$_{4}$OH
,,,,,Amfenac,C$_{15}$H$_{13}$NO$_{3}$
,,,,,Acefylline,C$_{9}$H$_{10}$N$_{4}$O$_{4}$
-0.1,0.912,,0.8,,Dicyclohexylamine,C$_{5}$H$_{9}$N$_{3}$O$_{2}$
-57.5,1.404,97.8,forms soluble hydrate,147.388,Chloral,C$_{2}$HCl$_{3}$O
,,,,,Bufothionine,C$_{12}$H$_{15}$N$_{2}$O$_{3}$S
,,,,,Fenyramidol,C$_{13}$H$_{14}$N$_{2}$O
L: 53,,122,,,Lactic acid,C$_{3}$H$_{6}$O$_{3}$
,,,,,Digoxin immune fab,
,,,,,Ambucetamide,C$_{17}$H$_{28}$N$_{2}$O$_{2}$
160,,,"insoluble in water, soluble in hydrochloric and nitric acid",,Gold(III) oxide,Au$_{2}$O$_{3}$
,,,,,Amisulpride,C$_{17}$H$_{27}$N$_{3}$O$_{4}$S
,,,,,Aminopterin,C$_{24}$H$_{40}$O$_{4}$
,,,,,Uridine diphosphate glucuronic acid,C$_{15}$H$_{22}$N$_{2}$O$_{18}$P$_{2}$
,,,,,Theaflavin digallate,C$_{43}$H$_{32}$O$_{20}$
,,,,,Vildagliptin,C$_{17}$H$_{25}$N$_{3}$O$_{2}$
75-78,,78-79,,,Acetylpyrazine,C$_{6}$H$_{6}$N$_{2}$O
,,,,741.318,Pendetide,C$_{31}$H$_{47}$N$_{7}$O$_{14}$
,,,,,Pyrvinium,C26H28N3charge+
,,,,,Elymoclavine,C$_{16}$H$_{18}$N$_{2}$O
,,,,179.13,Calcium 2-aminoethylphosphate,C$_{2}$H$_{6}$CaNO$_{4}$P
,,,,,Chloroacetamide,C$_{2}$H$_{4}$ClNO
,,,,195.99799,Pentacarbonylhydridomanganese,HMn(CO)$_{5}$
,,82-83,,,Tert-Butyl formate,C$_{5}$H$_{10}$O$_{2}$
,,,,,Fenproporex,C$_{12}$H$_{16}$N$_{2}$
62-67,,,,247.29,N-Ethoxycarbonyl-2-ethoxy-1 2-dihydroquinoline,C$_{14}$H$_{17}$NO$_{3}$
180,,,Soluble,,Trimethylglycine,C$_{5}$H$_{11}$NO$_{2}$
,,,,,Neurokinin A,C$_{50}$H$_{80}$N$_{14}$O$_{14}$S
195-197,,,,,Grubbs' catalyst,C$_{28}$H$_{45}$Cl$_{2}$PORu
-58,0.8683,85,miscible,,Dimethoxyethane,C$_{4}$H$_{10}$O$_{2}$
,,,,,JWH-398,C$_{24}$H$_{22}$ClNO
,,,,,Methyl gallate,C$_{8}$H$_{8}$O$_{5}$
,,,,,Trimellitic acid,C$_{9}$H$_{6}$O$_{6}$
,,,,,A-40174,C$_{26}$H$_{37}$NO$_{2}$
225,,,,278.28,Sudan Red G,C$_{17}$H$_{14}$N$_{2}$O$_{2}$
140,,>150,none,401.02,Cobalt(II) naphthenate,CoC$_{22}$H$_{14}$O$_{4}$
,,,,,Hexethal,C$_{12}$H$_{19}$N$_{2}$NaO$_{3}$
210-213,,,,,N-Benzoyl-N'-phenylurea,C$_{14}$H$_{12}$N$_{2}$O$_{2}$
,,,,351.675,Caesium cadmium chloride,CsCdCl$_{3}$
,,,,263.19,Hydroxy $\alpha$ sanshool,C$_{16}$H$_{25}$NO$_{2}$
,,,,,Peginesatide,chemical_formulaC$_{231}$H$_{350}$N$_{62}$O$_{58}$S$_{6}$[C$_{2}$H$_{4}$O]$_{n}$
40-50,1.8,189-192,,414.07,Perfluorooctanoic acid,C$_{8}$HF$_{15}$O$_{2}$
,,,,,Cysteinyldopa,C$_{12}$H$_{16}$N$_{2}$O$_{6}$S
,,,,670.71,Fagopyrin,C$_{40}$H$_{34}$N$_{2}$O$_{8}$
,,,,,Zolpidem,C$_{19}$H$_{21}$N$_{3}$O
,,,,432.38,Sophoricoside,C$_{21}$H$_{20}$O$_{10}$
,,,,,Polythiazide,C$_{11}$H$_{13}$ClF$_{3}$N$_{3}$O$_{4}$S$_{3}$
,,,,331.3,Europinidin,C$_{17}$H$_{15}$O$^{+}_{7}$(Cl$^{-}$)
-100,0.98,32,30% (20$^{\circ}$C),,Methyl formate,C$_{2}$H$_{4}$O$_{2}$
,,,,866.96,Pristinamycin IA,C$_{45}$H$_{54}$N$_{8}$O$_{10}$
,,,,,Econazole,C$_{18}$H$_{15}$Cl$_{3}$N$_{2}$O
,1.7,224,hydrolysis,,Perfluorodecyltrichlorosilane,CF$_{3}$(CF$_{2}$)$_{7}$(CH$_{2}$)$_{2}$SiCl$_{3}$
,,270,Insoluble,,Cyclamen aldehyde,C$_{13}$H$_{18}$O
,,,,,Pivmecillinam,C$_{21}$H$_{33}$N$_{3}$O$_{5}$S
,,,,,Pasireotide,C$_{58}$H$_{66}$N$_{10}$O$_{9}$
280-283,,,,208.2318,Lanthionine,C$_{6}$H$_{12}$N$_{2}$O$_{4}$S
,,,,,Kassinin,C$_{59}$H$_{95}$N$_{15}$O$_{18}$S
,,,,,Pachypodol,C$_{18}$H$_{16}$O$_{7}$
,,,,,AM251,C$_{22}$H$_{21}$Cl$_{2}$IN$_{4}$O
,,,,,Odanacatib,C$_{25}$H$_{27}$F$_{4}$N$_{3}$O$_{3}$S
,,,Soluble,,Propylene glycol alginate,B$_{12}$H$_{12}$Cs$_{2}$
,,,,,Melittin,C$_{131}$H$_{229}$N$_{39}$O$_{31}$
,,,,,Ponesimod,C$_{23}$H$_{25}$ClN$_{2}$O$_{4}$S
,,,,,Moxidectin,C$_{37}$H$_{53}$NO$_{8}$
,,,,,Arctigenin,C$_{21}$H$_{24}$O$_{6}$
,,,,,Almorexant,C$_{29}$H$_{32}$ClF$_{3}$N$_{2}$O$_{3}$
,,,,,Dichlorophenolindophenol,C$_{12}$H$_{7}$NCl$_{2}$O$_{2}$
1115,4.228,,4.47,104.6388,Germanium dioxide,GeO$_{2}$
55-57,1.071,345-348,,208.26,Chalcone,C$_{15}$H$_{12}$O
-150,,-20,,,Dimethylsilane,C$_{2}$H$_{8}$Si
39-45,0.942,201,,154.25,Fenchol,C$_{10}$H$_{18}$O
,,,,,Moroctocog alfa,
168,1.43,,Insoluble,,Chromocene,C$_{10}$H$_{10}$Cr
,,45,,96.08,Protoanemonin,C$_{5}$H$_{4}$O$_{2}$
,,,,,Promoxolane,C$_{10}$H$_{20}$O$_{3}$
,,,,,Etilevodopa,C$_{11}$H$_{15}$NO$_{4}$
,,,,316.43,Enestebol,C$_{20}$H$_{28}$O$_{3}$
,,,,,Para-Methoxy-N-ethylamphetamine,C$_{12}$H$_{19}$NO
,1.483,,,110.22,Thiocarbonic acid,CH$_{2}$S$_{3}$
,,,,150.13,Apiose,C$_{5}$H$_{10}$O$_{5}$
,,,,213.27,Beta-D,C$_{11}$H$_{15}$D$_{2}$NO$_{3}$
,,,,370.27,Eckstolonol,C$_{18}$H$_{10}$O$_{9}$
,,305.6,,,Furanomycin,C$_{7}$H$_{11}$NO$_{3}$
,,,,,Copper(I) fluoride,CuF
,,,,,Ro60-0213,C$_{15}$H$_{20}$N$_{2}$O
,,,,,Bibrocathol,C$_{6}$HBiBr$_{4}$O$_{3}$
,,,,585.097,Thallium triiodide,TlI$_{3}$
,,,,,Benzisoxazole,C$_{33}$H$_{44}$N$_{4}$O$_{6}$
165,,,insoluble,503.66,Triiron dodecacarbonyl,Fe$_{3}$(CO)$_{12}$
380,,,0.3,323.517,Antimony pentoxide,Sb$_{2}$O$_{5}$
,,,,272.32,Zolimidine,C$_{14}$H$_{12}$N$_{2}$O$_{2}$S
,,,,,Tiletamine,C$_{12}$H$_{17}$NOS
,,,,,D&amp,C$_{16}$H$_{11}$N$_{3}$O$_{7}$S$_{2}$Na$_{2}$
,,,,,Isopentane,C$_{5}$H$_{12}$
,,,,,Alpha-Pyrrolidinopentiophenone,C$_{15}$H$_{21}$NO
,,,,553.6,Merocyanine,C$_{26}$H$_{32}$N$_{3}$NaO$_{7}$S
,,,,,Alpha-Viniferin,C$_{42}$H$_{30}$O$_{9}$
,,,,,Yohimbine,C$_{21}$H$_{26}$N$_{2}$O$_{3}$
,,,,52.07,Cyclobutadiene,C$_{4}$H$_{4}$
,,,,,Aztreonam,C$_{13}$H$_{17}$N$_{5}$O$_{8}$S$_{2}$
,1.0495,209,,,Arecoline,C$_{8}$H$_{13}$NO$_{2}$
,,,0.7-1.2,,Nitrofen,C$_{12}$H$_{7}$Cl$_{2}$NO$_{3}$
,,,,,Eticyclidine,C$_{14}$H$_{21}$N
,,,,,Dynorphin A,C$_{75}$H$_{126}$N$_{24}$O$_{15}$
,,,,,Dabrafenib,C$_{23}$H$_{20}$F$_{3}$N$_{5}$O$_{2}$S$_{2}$
87,1.41,,0.00001% (20$^{\circ}$C),345.65,Methoxychlor,C$_{16}$H$_{15}$Cl$_{3}$O$_{2}$
113,,,,,Methaqualone,C$_{16}$H$_{14}$N$_{2}$O
,,,,,Rivoglitazone,C$_{20}$H$_{19}$N$_{3}$O$_{4}$S
,,,,,L-165041,C$_{22}$H$_{26}$O$_{7}$
,,,,,Faldaprevir,C$_{40}$H$_{49}$BrN$_{6}$O$_{9}$S
109-114,,,,164.20408,Duroquinone,C$_{10}$H$_{12}$O$_{2}$
,,,,,Desloratadine,C$_{19}$H$_{19}$ClN$_{2}$
,,456.14,,,Cerulenin,C$_{12}$H$_{17}$NO$_{3}$
,,,,,Brilacidin,C$_{40}$H$_{50}$F$_{6}$N$_{14}$O$_{6}$
,,81,good in alkanes,,Triisopropylphosphine,C$_{9}$H$_{21}$P
5,,153,,,Silicon tetrabromide,Br$_{4}$Si
1184,,,Insoluble,,Magnesium phosphate tribasic,Mg$_{3}$P$_{2}$O$_{8}$
126-131,,,forms adduct,511.98,Tris(pentafluorophenyl)borane,C$_{18}$F$_{15}$B
70,1.048,265,1.1,,Butylated hydroxytoluene,C$_{15}$H$_{24}$O
,,,,,CY-208 243,
,,,,,Atipamezole,C$_{14}$H$_{16}$N$_{2}$
,1.244,,,,Dihydrocortisone,C$_{21}$H$_{30}$O$_{5}$
,,,,,Clevidipine,C$_{21}$H$_{23}$Cl$_{2}$NO$_{6}$
,,,,47.013,Nitrosyl-O-hydroxide,HNO$_{2}$
,,,,,Lefetamine,C$_{16}$H$_{19}$N
,,,,,Mubritinib,C$_{25}$H$_{23}$F$_{3}$N$_{4}$O$_{2}$
,,150-400,Slightly,,Pine tar,"NdCl$_{3}$,"
,,,,170.06,Dihydroxyacetone phosphate,C$_{3}$H$_{7}$O$_{6}$P
,7.1,970,,,Hafnium tetrafluoride,HfF$_{4}$
,,,13.47,,Imazapyr,C$_{13}$H$_{15}$N$_{3}$O$_{3}$
480,7.557,815,0.047,284.288,Thallium(I) bromide,TlBr
256,,,,,Potassium tert-butoxide,C$_{4}$H$_{9}$KO
,,,,282.24,Xylobiose,C$_{10}$H$_{18}$O$_{9}$
,,270,,,Geosmin,C$_{12}$H$_{22}$O
,,,insoluble,459.671,Iron(III) chromate,Fe$_{2}$(CrO$_{4}$)$_{3}$
55.5,,,,,Phthalaldehyde,C$_{8}$H$_{6}$O$_{2}$
139-141,,,,128.13,Phthalonitrile,C$_{6}$H$_{4}$(CN)$_{2}$
,,,,,ATC-0175,C$_{23}$H$_{25}$F$_{2}$N$_{5}$O
1910,7.179,,insoluble,277.64,Indium(III) oxide,In$_{2}$O$_{3}$
,,,,,FGI-104,C$_{28}$H$_{30}$ClN$_{3}$O$_{3}$
-54,,74,,,Tetramethyltin,C$_{4}$H$_{12}$Sn
156,,,0.05,,Dimethyl tetrachloroterephthalate,C$_{10}$H$_{6}$Cl$_{4}$O$_{4}$
,,,12.5,,Dibromomethane,CH$_{2}$Br$_{2}$
,,133,1120,119.12,Butyl nitrate,C$_{4}$H$_{9}$NO$_{3}$
,,,,,Ethionamide,C$_{8}$H$_{10}$N$_{2}$S
,1.2,,,322.3,Tetraethyl dithiopyrophosphate,((CH$_{3}$CH$_{2}$O)$_{2}$PS)$_{2}$O
,,,,,Chlormezanone,C$_{11}$H$_{12}$ClNO$_{3}$S
507-645,,1773,177,341.43,Strontium iodide,SrI$_{2}$(anhydrous)
,,,,,Purmorphamine,C$_{31}$H$_{32}$N$_{6}$O$_{2}$
,,,,,Tienopramine,C$_{17}$H$_{20}$N$_{2}$S
,,,,,Methadone intermediate,
324,1.528,881.4,Anhydrous:,,Sodium acetate,NaC$_{2}$H$_{3}$O$_{2}$
,,,,,Ciclacillin,C$_{15}$H$_{23}$N$_{3}$O$_{4}$S
,,,,,Narasin,C$_{43}$H$_{72}$O
,,,,,JWH-250,C$_{22}$H$_{25}$NO$_{2}$
,1.62,,Freely soluble,,Citraconic acid,C$_{5}$H$_{6}$O$_{4}$
8.3,2.99,149.5,Reacts,216.74,Antimony pentafluoride,SbF$_{5}$
,,,,,Iopentol,C$_{20}$H$_{28}$I$_{3}$N$_{3}$O$_{9}$
,,74-76,,101.15,Prolinol,C$_{5}$H$_{11}$NO
> 100,4.01,840,65,154.75,Nickel(II) sulfate,NiSO$_{4}$
,,,,,Disilyne,H$_{2}$Si$_{2}$
28,0.885,198-199,,138.2,Phorone,C$_{9}$H$_{14}$O
,,,,,Cirazoline,C$_{13}$H$_{16}$N$_{2}$O
872,4.95,1500,0.000052,103.406,Zinc fluoride,ZnF$_{2}$
,,,,,Afatinib,C$_{24}$H$_{25}$ClFN$_{5}$O$_{3}$
,,220,630,282.1,Potassium sodium tartrate,KNaC$_{4}$H$_{4}$O$_{6}$.4H$_{2}$O
,,,,836.795,Uroporphyrinogen III,C$_{40}$H$_{44}$N$_{4}$O$_{16}$
143,,348.5,,,Tin(IV) iodide,SnI$_{4}$
,,,,,Thioacetazone,C$_{10}$H$_{12}$N$_{4}$OS
-51.5,,212,0.31,150.18,Benzyl acetate,C$_{9}$H$_{10}$O$_{2}$
,,,,,Cefpodoxime,C$_{15}$H$_{17}$N$_{5}$O$_{6}$S$_{2}$
,,,,141.063,Phosphorylethanolamine,C$_{2}$H$_{8}$NO$_{4}$P
,,,,,Dulaglutide,C$_{2646}$H$_{4044}$N$_{704}$O$_{836}$S$_{18}$
,,,,,Diisopinocampheylborane,C$_{20}$H$_{35}$B
,,,,,Betahistine,C$_{8}$H$_{12}$N$_{2}$
,,,,,Epinephrine,C$_{9}$H$_{13}$NO$_{3}$
,,-46,,,Cyanogen fluoride,CNF
,,,,512.59,Mallotojaponin C,C$_{29}$H$_{36}$O$_{8}$
,,,,269.3,Ambuphylline,C$_{11}$H$_{19}$N$_{5}$O$_{3}$
,,,,304.29,Sappanol,C$_{16}$H$_{16}$O$_{6}$
,,,,,Pegsunercept,C$_{502}$H$_{758}$N$_{154}$O$_{165}$S$_{16}$
,,,,,SB-269970,C$_{18}$H$_{28}$N$_{2}$O$_{3}$S
,,,,,Bithionol,C$_{12}$H$_{6}$Cl$_{4}$O$_{2}$S
,1.014,189,,250.33,Octyl salicylate,C$_{15}$H$_{22}$O$_{3}$
,,,,,Ketoconazole,C$_{26}$H$_{28}$Cl$_{2}$N$_{4}$O$_{4}$
,,,,285.14,Pentaamine(dinitrogen)ruthenium(II) chloride,H$_{15}$N$_{7}$Cl$_{2}$Ru
679,4,,"soluble in trace amounts, better solubility in cold water",177.326,Palladium(II) chloride,PdCl$_{2}$
,,,,,Pregnenolone,C$_{21}$H$_{32}$O$_{2}$
,,,,617.53,Compound NJ2,C$_{32}$H$_{25}$O$_{13}$
56,,140,practically insoluble,,Patchoulol,C$_{15}$H$_{26}$O
-47,,155.65,,98.15,Cyclohexanone,C$_{6}$H$_{10}$O
,,,,116.15,Cyclohexane-1 2-diol,C$_{6}$H$_{12}$O$_{2}$
,,,,,Anisindione,C$_{16}$H$_{12}$O$_{3}$
,,,,,Butalbital,C$_{11}$H$_{16}$N$_{2}$O$_{3}$
,,,,,Fraxetin,C$_{10}$H$_{8}$O$_{5}$
80-83,,,,214.6,Monolinuron,C$_{9}$H$_{11}$ClN$_{2}$O$_{2}$
100-102,0.97,,,,Oxamyl,C$_{7}$H$_{13}$N$_{3}$O$_{3}$S
,,,30,,Hydrazine sulfate,H$_{6}$N$_{2}$O$_{4}$S
,,,,,Carboxyamidotriazole,C$_{17}$H$_{12}$Cl$_{3}$N$_{5}$O$_{2}$
,,,,377.13,Xylitol pentanitrate,C$_{5}$H$_{7}$N$_{5}$O$_{15}$
,,,,,Liothyronine,C$_{15}$H$_{11}$I$_{3}$NNaO$_{4}$
32-34,1.069,330,,,Dibenzyl ketone,C$_{15}$H$_{14}$O
,,,,,Oxypurinol,C$_{5}$H$_{4}$N$_{4}$O$_{2}$
89,,,,,Laudanosine,C$_{21}$H$_{27}$NO$_{4}$
,,,,,Polmacoxib,C$_{12}$H$_{16}$FNO$_{4}$S
,,,,,Casopitant,C$_{30}$H$_{35}$F$_{7}$N$_{4}$O$_{2}$
,,,,,Fidarestat,C$_{12}$H$_{10}$FN$_{3}$O$_{4}$
,,,,308.84,Norclostebol,C$_{18}$H$_{25}$ClO$_{2}$
,,,,854.81,Hydroxymethylbilane,C$_{40}$H$_{46}$N$_{4}$O$_{17}$
,,,,,Atosiban,C$_{43}$H$_{67}$N$_{11}$O$_{12}$S$_{2}$
,,,,,Deoxyguanosine triphosphate,C$_{10}$H$_{16}$N$_{5}$O$_{13}$P$_{3}$
,,,,669.32,Adenophostin,C$_{16}$H$_{26}$N$_{5}$O$_{18}$P$_{3}$
181,,,,,Benzyltrimethylammonium fluoride,C$_{10}$H$_{18}$FNO
,,,,,Lindane,C$_{6}$H$_{6}$Cl$_{6}$
88.1,,,,,Indoxacarb,C$_{22}$H$_{17}$ClF$_{3}$N$_{3}$O$_{7}$
,,,,348.206,Inosinic acid,C$_{10}$H$_{13}$N$_{4}$O$_{8}$P
,,,,,Mesuximide,C$_{12}$H$_{13}$NO$_{2}$
,,,,,Iomeprol,C$_{17}$H$_{22}$I$_{3}$N$_{3}$O$_{8}$
,,,,,EPI-001,C$_{21}$H$_{27}$ClO$_{5}$
>300,,,Soluble,640.53,Tris(bipyridine)ruthenium(II) chloride,C$_{30}$H$_{24}$N$_{6}$Cl$_{2}$Ru$_{.6}$H$_{2}$O
,,,,,Mitoguazone,C$_{5}$H$_{12}$N$_{8}$
,,,,,Beryllium monohydride,BeH$^{.}$
,,,,311.4,Metahexamide,C$_{14}$H$_{21}$N$_{3}$O$_{3}$S
,,,,,Noxiptiline,C$_{19}$H$_{22}$N$_{2}$O
,,,,119.12,Homoserine,C$_{4}$H$_{9}$NO$_{3}$
,,,,,Fulminic acid,HCNO
857,4.78,1835,92.2,297.14,Barium bromide,BaBr$_{2}$(anhydrous)
-69,,112,0.20%,164.375,Chloropicrin,CCl$_{3}$NO$_{2}$
,,,,,Desogestrel,C$_{22}$H$_{30}$O
,,,,,Semax,C$_{37}$H$_{51}$N$_{9}$O$_{10}$S
,,,,448.42,Knipholone,C$_{25}$H$_{20}$O$_{8}$
,,,,,Alfaxalone,C$_{21}$H$_{32}$O$_{3}$
,,,,934.63,Castalagin,C$_{41}$H$_{26}$O$_{26}$
,,,,,Gemigliptin,C$_{18}$H$_{19}$F$_{8}$N$_{5}$O$_{2}$
,,,,,Octatetraynyl radical,C$_{8}$H
,,,"slightly soluble, reacts",525.19,Mercury(I) nitrate,Hg$_{2}$(NO$_{3}$)$_{2}$(anhydrous)
,,,3.2,,Bromoform,CHBr$_{3}$
,,,,,Pyroxamine,C$_{18}$H$_{20}$ClNO
,,,,,Metamfepramone,C$_{11}$H$_{15}$NO
103,,,decomposes,,Thallium(III) nitrate,N$_{3}$O$_{9}$Tl
35.2,,165,Soluble in water and ethanol,,Fluoroacetic acid,C$_{2}$H$_{3}$FO$_{2}$
210,,400,reacts,,Sodium amide,NaNH$_{2}$
156,,,Insoluble,,Citrus Red 2,C$_{18}$H$_{16}$N$_{2}$O$_{3}$
,,,,400.04,Benzoxonium chloride,C$_{23}$H$_{42}$ClNO$_{2}$
,,,,,Ensaculin,C$_{26}$H$_{32}$N$_{2}$O$_{5}$
,,,,,Galeterone,C$_{26}$H$_{32}$N$_{2}$O
,1.08,,,,Styrene maleic anhydride,(C$_{8}$H$_{8}$)$_{n}$-(C$_{4}$H$_{2}$O$_{3}$)$_{m}$
255,2.38,600,52.2,68.946,Lithium nitrate,LiNO$_{3}$
,,,,,BRL-15 572,
,,,,,Clocapramine,C$_{28}$H$_{37}$ClN$_{4}$O
115,,,,,Norcantharidin,C$_{8}$H$_{8}$O$_{4}$
,,,,,Salicylamide,C$_{7}$H$_{7}$NO$_{2}$
93,1.04,310,insoluble,188.6,CS gas,C$_{10}$H$_{5}$ClN$_{2}$
,,,,,Formestane,C$_{19}$H$_{26}$O$_{3}$
,,,,346.28,Syringetin,C$_{17}$H$_{14}$O$_{8}$
,,,,,Lisdexamfetamine,C$_{15}$H$_{25}$N$_{3}$O
722,,1457,Not Published Yet,379.828,Cerium(III) bromide,CeBr$_{3}$
,,,,,Thymidine diphosphate,C$_{10}$H$_{16}$N$_{2}$O$_{12}$P$_{2}$
,,,,,Torcetrapib,C$_{26}$H$_{25}$F$_{9}$N$_{2}$O$_{4}$
,,,,,Polyethylenimine,"(C$_{2}$H$_{5}$N)$_{n}$,linearform"
,,,,,Dieticyclidine,C$_{16}$H$_{25}$N
,,,,241.35,Meta-DOT,C$_{12}$H$_{19}$NO$_{2}$S
,,,,,Olanzapine,C$_{17}$H$_{20}$N$_{4}$S
105,,245.5,430,110.1,Catechol,C$_{6}$H$_{6}$O$_{2}$
,,,,,Blosozumab,C$_{6462}$H$_{9852}$N$_{1684}$O$_{2030}$S$_{46}$
,,,,,SB-271046,C$_{20}$H$_{22}$ClN$_{3}$O$_{3}$S$_{2}$
-64,,100,Hydrolyzes,164.1,Methyl trifluoromethansulfonate,C$_{2}$H$_{3}$F$_{3}$O$_{3}$S
,,,,,M1G,C$_{8}$H$_{5}$N$_{5}$O
,,,,,Ripazepam,C$_{15}$H$_{16}$N$_{4}$O
,,,,,Xibenolol,C$_{15}$H$_{25}$NO$_{2}$
705,,,slightly soluble in water,,Aluminium molybdate,Al$_{2}$(MoO$_{4}$)$_{3}$
,,,,,Fluocortolone,C$_{22}$H$_{29}$FO$_{4}$
,,,,,Promethazine,C$_{17}$H$_{20}$N$_{2}$S
410,3.58,,insoluble,202.3,Molybdenum(III) chloride,MoCl$_{3}$
,,,,,Pilocarpine,C$_{11}$H$_{16}$N$_{2}$O$_{2}$
,,,,,Octasulfur,S$_{8}$