Property Melting Point,Property Density,Property Boiling Point,Property Solubility,Property Molar Mass,Name,formula
,,,,,MMAI,C$_{11}$H$_{15}$NO
213,,,immiscible in water,,Dichloro(1 3-bis(diphenylphosphino)propane)nickel,C$_{27}$H$_{26}$Cl$_{2}$NiP$_{2}$
,,,,,Fenticonazole,C$_{24}$H$_{20}$Cl$_{2}$N$_{2}$OS
,,,,,Imidogen,HN
,,,,,Adafenoxate,C$_{20}$H$_{26}$ClNO$_{3}$
113,,179,,,Isovanillin,C$_{8}$H$_{8}$O$_{3}$
,,,,,Bis(triphenylphosphine)nickel chloride,C$_{36}$H$_{30}$Cl$_{2}$NiP$_{2}$
,,,,,Olaparib,C$_{24}$H$_{23}$FN$_{4}$O$_{3}$
-7.5,1.06,254,,164.2,Eugenol,C$_{10}$H$_{12}$O$_{2}$
224,,380,,1077.64,Tellurium tetrachloride,(TeCl$_{4}$)$_{4}$
390,1.199,,990,262.27,Indigo dye,C$_{16}$H$_{10}$N$_{2}$O$_{2}$
,,,,,JNJ-Q2,C$_{21}$H$_{23}$F$_{2}$N$_{3}$O$_{4}$
,,,,,Biebrich scarlet,C$_{22}$H$_{16}$N$_{4}$O$_{7}$S$_{2}$
,,,,,Pamidronic acid,
,,,Insoluble,,Indanthrone blue,C$_{28}$H$_{14}$N$_{2}$O$_{4}$
,,,,,Allylprodine,C$_{18}$H$_{25}$NO$_{2}$
,,,,,Modimelanotide,C$_{113}$H$_{181}$N$_{33}$O$_{25}$S
643,4.216,2146,107,247.428,Strontium bromide,SrBr$_{2}$
,,,,,Efaproxiral,C$_{20}$H$_{23}$NO$_{4}$
260,1.694,,1.19,170.12,Gallic acid,C$_{7}$H$_{6}$O$_{5}$
47,,154,Soluble,,N-Nitrosonornicotine,C$_{9}$H$_{11}$N$_{3}$O
189-194,,,,,Isosaccharinic acid,C$_{6}$H$_{12}$O$_{6}$
198-200,,,,552.67,Roussin's black salt,Fe$_{4}$N$_{7}$NaO$_{7}$S$_{3}$
,,,,426.38,Nicarbazin,C$_{19}$H$_{18}$N$_{6}$O$_{6}$
143.5-148.5,,,,,Grubbs' catalyst,C$_{46}$H$_{65}$Cl$_{2}$N$_{2}$PRu
,,,Reacts,,Sulfur monoxide,SO
-26,,51,"Sparingly sol in water, miscible with alcohol and ether",92.57,Tert-Butyl chloride,C$_{4}$H$_{9}$Cl
-16,,63,Reacts,126.93,Oxalyl chloride,C$_{2}$O$_{2}$Cl$_{2}$
,,,,,SSR-180 711,
,,,,,Thallium(III) hydroxide,TlH$_{3}$O$_{3}$
118.35,3.44,,very soluble,126.96,Selenium trioxide,SeO$_{3}$
,,,,,Ritalinic acid,
,,,,,Dimagnesium phosphate,MgPHO$_{4}$
8.77,2.803,125.72,,136.9,Bromine trifluoride,BrF$_{3}$
55-60,,>400,,,Glycol stearate,C$_{20}$H$_{40}$O$_{3}$
,,,,464.37,Myricitrin,C$_{21}$H$_{20}$O$_{12}$
,,,,,Fluoxymesterone,C$_{20}$H$_{29}$FO$_{3}$
,,,,958.83,Dichlorotris(triphenylphosphine)ruthenium(II),C$_{54}$H$_{45}$Cl$_{2}$P$_{3}$Ru
,,,,,RWJ-394674,C$_{33}$H$_{38}$N$_{2}$O
110,,,269,175.91,Iodic acid,HIO$_{3}$
2235,,,insoluble,152.49,Strontium hexaboride,SrB$_{6}$
,,,,,Styrene-acrylonitrile resin,(C$_{8}$H$_{8}$)$_{n}$-(C$_{3}$H$_{3}$N)$_{m}$
693,3.35,1340,98,165.372,Rubidium bromide,RbBr
300,,,,,Bromopyrogallol red,C$_{19}$H$_{10}$Br$_{2}$O$_{9}$S
,,,,244.34,CGP 52608,C$_{8}$H$_{12}$N$_{4}$OS$_{2}$
,,,,,Oleandomycin,C$_{35}$H$_{61}$NO$_{12}$
130-132,,,,,Cypionic acid,C$_{8}$H$_{14}$O$_{2}$
,,,,,Dutasteride,C$_{27}$H$_{30}$F$_{6}$N$_{2}$O$_{2}$
,1.208,,,,Anthramine,C$_{14}$H$_{11}$N
,,,,,Oxeladin,C$_{20}$H$_{33}$NO$_{3}$
,,,,,DMMDA,C$_{12}$H$_{19}$NO$_{4}$
192-198,> 1.1,,,137.9977,Cacodylic acid,C$_{2}$H$_{7}$AsO$_{2}$
,,,,,Trimecaine,C$_{15}$H$_{24}$N$_{2}$O
,,,,,CBiPES,C$_{21}$H$_{19}$N$_{3}$O$_{2}$S
,,,,,Chlorzoxazone,C$_{7}$H$_{4}$ClNO$_{2}$
300,1.396,,Reacts with water,23.99771,Sodium hydride,NaH
,,,,,Pegvisomant,C$_{990}$H$_{1532}$N$_{262}$O$_{300}$S$_{7}$
,,,,290.48,Isotuberculosinol,C$_{20}$H$_{34}$O
,1.189,108,0.06,,Flucythrinate,C$_{26}$H$_{23}$F$_{2}$NO$_{4}$
795,,1155,0.1066,,Molybdenum trioxide,MoO$_{3}$
,,,,,BD1008,C$_{15}$H$_{22}$N$_{2}$Cl$_{2}$
,,,,1239.07,GelRed,C$_{60}$H$_{72}$I$_{2}$N$_{8}$O$_{5}$
,,,,,Entecavir,C$_{12}$H$_{15}$N$_{5}$O$_{3}$
,,,,,Dicofol,C$_{14}$H$_{9}$Cl$_{5}$O
,,,,1347.63,Substance P,C$_{63}$H$_{98}$N$_{18}$O$_{13}$S
,,,,,Indium (111In) satumomab pendetide,
,,,,375.59,Docosatetraenoylethanolamide,C$_{24}$H$_{41}$NO$_{2}$
272-274,,,,374.84,Tetraphenylphosphonium chloride,C$_{24}$H$_{20}$ClP
-85,1.06,110,2.5,,Dimethyl disulfide,C$_{2}$H$_{6}$S$_{2}$
-19,,222,Fully miscible,,Aminoethylpiperazine,C$_{6}$H$_{15}$N$_{3}$
,,,,,Elvucitabine,C$_{9}$H$_{10}$FN$_{3}$O$_{3}$
,,,,,Etretinate,C$_{23}$H$_{30}$O$_{3}$
,,,,,Dolichyl $\beta$-D-glucosyl phosphate,C$_{26+5n}$H$_{47+8n}$O$_{9}$P
144,,,,,Ethylene bis(stearamide),C$_{38}$H$_{76}$N$_{2}$O$_{2}$
,,,,,Memantine,C$_{12}$H$_{21}$N
,,,,,RTI-51,C$_{16}$H$_{20}$BrNO$_{2}$
,,,,,Methoxy arachidonyl fluorophosphonate,C$_{21}$H$_{36}$FO$_{2}$P
300,,,,,Sunset Yellow FCF,C$_{16}$H$_{10}$N$_{2}$Na$_{2}$O$_{7}$S$_{2}$
107.4,,348.9,slightly soluble,179.217,Phenanthridine,C$_{13}$H$_{9}$N
,,,,,DASB,C$_{16}$H$_{17}$N$_{3}$S
,,,,,Tetroxoprim,C$_{16}$H$_{22}$N$_{4}$O$_{4}$
-40.5,,295,1080,222.24,Diethyl phthalate,C$_{12}$H$_{14}$O$_{4}$
-78,,126,slow hydrolysis,,Bis(trimethylsilyl)amine,C$_{6}$H$_{19}$NSi$_{2}$
,,,,,Eravacycline,C$_{27}$H$_{31}$FN$_{4}$O$_{8}$
,,,,,Etaqualone,C$_{17}$H$_{16}$N$_{2}$O
-61.3,2.466,40.25,reacts,,Bromine pentafluoride,BrF$_{5}$
,,,,416.68,Gamma-Tocopherol,C$_{28}$H$_{48}$O$_{2}$
,,,,,Cilomilast,C$_{20}$H$_{25}$NO$_{4}$
,,,,,Ioxitalamic acid,
,,,,,Zapizolam,C$_{15}$H$_{9}$Cl$_{2}$N$_{5}$
163-170,,,,,Denatonium,C$_{28}$H$_{34}$N$_{2}$O$_{3}$
,,,,232.15,CNQX,C$_{9}$H$_{4}$N$_{4}$O$_{4}$
,,,,,Chlorotrianisene,C$_{23}$H$_{21}$ClO$_{3}$
,,,,237.22,Sepiapterin,C$_{9}$H$_{11}$N$_{5}$O$_{3}$
,,,,,Chelerythrine,C$_{21}$H$_{18}$NO$_{4}$
-44,,142,low,,Cyclohexyl chloride,C$_{6}$H$_{11}$Cl
,,,,,Fenbendazole,C$_{15}$H$_{13}$N$_{3}$O$_{2}$S
73-74,,,,222.37,Alpha-Cadinol,C$_{15}$H$_{26}$O
,,,9.5,,Hexane,C$_{6}$H$_{14}$
$\alpha$-D-glucose: 146,1.54,,909,,Glucose,C$_{6}$H$_{12}$O$_{6}$
,,,,,Buprenorphine,C$_{29}$H$_{41}$NO$_{4}$
,,,,,Baricitinib,C$_{16}$H$_{17}$N$_{7}$O$_{2}$S
,,,,,Maropitant,C$_{32}$H$_{40}$N$_{2}$O
,,,,,Flame arrester,NH$_{3}$
,,,,,MEAI,C$_{10}$H$_{13}$NO
,,,,,Clioquinol,C$_{9}$H$_{5}$ClINO
,,,,,Lavandulol,C$_{10}$H$_{18}$O
,,,,,Methyldesorphine,C$_{18}$H$_{21}$NO$_{2}$
182-184,,,,,Arsenicin A,C$_{3}$H$_{6}$As$_{4}$O$_{3}$
16.7,0.91,239.7,0.068,144.21,Caprylic acid,C$_{8}$H$_{16}$O$_{2}$
,,,,471.59,MK-9470,C$_{29}$H$_{33}$N$_{3}$O$_{3}$
,,,,,Amitifadine,C$_{11}$H$_{11}$Cl$_{2}$N
240,1.336,339.5,,,Fenclonine,C$_{9}$H$_{10}$ClNO
,,,,,Tymazoline,C$_{14}$H$_{20}$N$_{2}$O
280,1.33,,85.3,140.186,Hexamethylenetetramine,C$_{6}$H$_{12}$N$_{4}$
,,,,,Technetium (99mTc) tilmanocept,
,6.86,,insoluble,509.9685,Bismuth subcarbonate,Bi$_{2}$O$_{2}$(CO$_{3}$)
,,,,,Idraparinux,C$_{38}$H$_{55}$Na$_{9}$O$_{49}$S$_{7}$
88,,,DMF: soluble,,Laurdan,C$_{24}$H$_{35}$NO
5,,42.5,,,Cyanoacetylene,C$_{3}$HN
,,,,,Tofogliflozin,C$_{22}$H$_{28}$O$_{7}$
-6.55,,13,soluble,,Cyanogen chloride,CNCl
69.2,1.01,270.8,866.89,,Caprolactam,C$_{6}$H$_{11}$NO
,,,,298.4,Dimethylaminopropionylphenothiazine,C$_{17}$H$_{18}$N$_{2}$OS
,,,,,Furafylline,C$_{12}$H$_{12}$N$_{4}$O$_{3}$
,,,,,Benzenehexol,C$_{6}$H$_{6}$O$_{6}$
2250,,,,184.03,Europium(II) sulfide,EuS
,,,,424.66,Alpha-Tocotrienol,C$_{29}$H$_{44}$O$_{2}$
,,92,,,Guaiol,C$_{15}$H$_{26}$O
-56,,-34,,97.616,Diboron tetrafluoride,B$_{2}$F$_{4}$
-129,,97,,,Allyl alcohol,C$_{3}$H$_{6}$O
1100,6.74,,Insoluble in water,,Iron phosphide,Fe$_{3}$P
140,,,,,Chorismic acid,C$_{10}$H$_{10}$O$_{6}$
300,,,,67.996,Chromium(II) oxide,CrO
,,,,294,Niobocene dichloride,C$_{10}$H$_{1o}$Cl$_{2}$Nb
,,,,,Venlafaxine,C$_{9}$H$_{17}$NO$_{2}$
,,,,,Prothipendyl,C$_{16}$H$_{19}$N$_{3}$S
,,,,,Lasmiditan,C$_{19}$H$_{18}$F$_{3}$N$_{3}$O$_{2}$
,,,,,JWH-147,C$_{27}$H$_{27}$NO
,,,,,Acefylline clofibrol,
,,,,,U0126,C$_{18}$H$_{16}$N$_{6}$S$_{2}$
30-34,,189-190,Very soluble,,Valinol,C$_{5}$H$_{13}$NO
,,,,,Goserelin,C$_{59}$H$_{84}$N$_{18}$O$_{14}$
2530,2.85,,reacts,57.9552,Aluminium phosphide,AlP
,,,,,Sanguinarine,C$_{20}$H$_{14}$NO$_{4}$
122.41,1.2659,249.2,1.7,,Benzoic acid,C$_{7}$H$_{6}$O$_{2}$
,,,,,Morphine,C$_{17}$H$_{19}$NO$_{3}$
,,,,,Bendamustine,C$_{16}$H$_{21}$Cl$_{2}$N$_{3}$O$_{2}$
-57,,194,Insoluble,,N-Methylaniline,C$_{7}$H$_{9}$N
110,2.44,2500,36.2,105.075,Beryllium sulfate,BeSO$_{4}$
,,,Reacts with water,166.02,Hexafluoroacetone,C$_{3}$F$_{6}$O
27,,256,,,Cashmeran,C$_{14}$H$_{22}$O
,,,,,Iminodiacetic acid,C$_{4}$H$_{7}$NO$_{4}$
,,,Hydrolysis,,Vinylsilane,SiC$_{2}$H$_{6}$
,,,,,Pyrazinamide,C$_{5}$H$_{5}$N$_{3}$O
128,,,,,Oxindole,C$_{8}$H$_{7}$NO
,,,,246.21,Isopimpinellin,C$_{13}$H$_{10}$O$_{5}$
,,,,,Naftifine,C$_{21}$H$_{21}$N
,,,,,Amoxapine,C$_{17}$H$_{16}$ClN$_{3}$O
,,305,,,Choline,C$_{6}$H$_{5}$O$^{3-}_{7}$
,,,insoluble,,Triphosphorus pentanitride,P$_{3}$N$_{5}$
,,,,459.75,Octachlorodibenzodioxin,C$_{12}$Cl$_{8}$O$_{2}$
,,,,286.23,Orobol,C$_{15}$H$_{10}$O$_{6}$
,,,1,152.11,Xanthine,C$_{5}$H$_{4}$N$_{4}$O$_{2}$
698,4.179,,57.5,,Sodium tungstate,Na$_{2}$WO$_{4}$
330,,,,286.2363,Fisetin,C$_{15}$H$_{10}$O$_{6}$
,,,,,Decoquinate,C$_{24}$H$_{35}$NO$_{5}$
33-35,1.1447,245-246,,116.11,Levulinic acid,C$_{5}$H$_{8}$O$_{3}$
,,,,342.3,Laminaribiose,C$_{12}$H$_{22}$O$_{11}$
88-90,,,,,Threitol,C$_{4}$H$_{10}$O$_{4}$
904,3.914,,soluble,284.67,Scandium bromide,ScBr$_{3}$
0.7,0.8652,265,,,Dodecyl acetate,C$_{14}$H$_{28}$O$_{2}$
,,,,,Nalmefene,C$_{21}$H$_{25}$NO$_{3}$
,,,,286.241,Scutellarein,C$_{15}$H$_{10}$O$_{6}$
,,,,,Cocamidopropyl $\beta$ine,C$_{19}$H$_{38}$N$_{2}$O$_{3}$
,,,,,BCX4430,C$_{11}$H$_{15}$N$_{5}$O$_{3}$
,,,,,JWH-019,C$_{25}$H$_{25}$NO
,,,,1857.29,Cornusiin E,C$_{82}$H$_{56}$O$_{51}$
,5.9,,Insoluble,66.003,Chromium nitride,CrN
250,3.01,,,146.9522,Cobalt(II) oxalate,CoC$_{2}$O$_{4}$
,,,,,Chloromorphide,C$_{17}$H$_{18}$ClNO$_{2}$
1130,5.6,,Insoluble,159.16,Copper(I) sulfide,Cu$_{2}$S
,,,,,Carnosol,C$_{20}$H$_{26}$O$_{4}$
30,1.163,121.4,slight in cold water,,Diacetyl peroxide,C$_{4}$H$_{6}$O$_{4}$
,,,,382.38,Pentacosylic acid,C$_{25}$H$_{50}$O$_{2}$
2425,,4300,,225.81,Yttrium(III) oxide,Y$_{2}$O$_{3}$
,,,,,Pirarubicin,C$_{32}$H$_{37}$NO$_{12}$
175,,,,168.14,Orsellinic acid,C$_{8}$H$_{8}$O$_{4}$
,,,,,Properidine,C$_{16}$H$_{23}$NO$_{2}$
91-93,,,225,218.08,Propanil,C$_{9}$H$_{9}$Cl$_{2}$NO
,,,,,Sivelestat,C$_{20}$H$_{22}$N$_{2}$O$_{7}$S
,,,,452.38,Orange G,C$_{16}$H$_{10}$N$_{2}$Na$_{2}$O$_{7}$S$_{2}$
,,,,,Oxpheneridine,C$_{22}$H$_{27}$NO$_{3}$
,,,,,Vincristine,C$_{46}$H$_{56}$N$_{4}$O$_{10}$
,,,,,Cypenamine,C$_{11}$H$_{15}$N
> 290,,,,,Dichlorobis(ethylenediamine)nickel(II),C$_{4}$H$_{16}$Cl$_{2}$N$_{4}$Ni
,,,,,Cefacetrile,C$_{13}$H$_{13}$N$_{3}$O$_{6}$S
,,,,,Amodiaquine,C$_{20}$H$_{22}$ClN$_{3}$O
-82,,,,,Diisopropyl fluorophosphate,
,,,,,Lexatumumab,C$_{6346}$H$_{9832}$N$_{1720}$O$_{2002}$S$_{42}$
61.3,3.83,69.14,reacts violently,309.07,Platinum hexafluoride,PtF$_{6}$
801,2.165,1413,14.9,,Sodium chloride,NaCl
,,,,,Etidocaine,C$_{17}$H$_{28}$N$_{2}$O
,,,,,Palladium(II IV) fluoride,PdF$_{3}$
,,,,,Sultiame,C$_{10}$H$_{14}$N$_{2}$O$_{4}$S$_{2}$
,,,,388.29,Imidazolidinyl urea,C$_{11}$H$_{16}$N$_{8}$O$_{8}$
-10,,195,2.21,120.15,Phenylacetaldehyde,C$_{8}$H$_{8}$O
,,,,,Clazuril,C$_{17}$H$_{10}$Cl$_{2}$N$_{4}$O$_{2}$
,,,,,Arabinopyranosyl-N-methyl-N-nitrosourea,C$_{7}$H$_{13}$N$_{3}$O$_{6}$
,,,,492.42,Burkinabin C,C$_{23}$H$_{24}$O$_{12}$
75,,,insoluble,175.0902,Copper(III) oxide,Cu$_{2}$O$_{3}$
163-168,,,,,Pyrimidone,C$_{4}$H$_{4}$N$_{2}$O
-77,,168,"reacts with water, soluble in ethanol, and 2-propanol",,Tetraethyl orthosilicate,SiC$_{8}$H$_{20}$O$_{4}$
,,,,,SB-258585,C$_{18}$H$_{22}$IN$_{3}$O$_{3}$S
165-166,,210-220,,394.41,Rotenone,C$_{23}$H$_{22}$O$_{6}$
15,1.469,,44g/100ml at 20,151.04,Trinitromethane,CHN$_{3}$O$_{6}$
,,,,,Epitizide,C$_{10}$H$_{11}$ClF$_{3}$N$_{3}$O$_{4}$S$_{3}$
,,,,,Amezepine,C$_{18}$H$_{20}$N$_{2}$
,,,,,Urapidil,C$_{20}$H$_{29}$N$_{5}$O$_{3}$
,,,,70.062,Sulfur difluoride,SF$_{2}$
,,,,,Nylon 6,(C$_{6}$H$_{11}$NO)$_{n}$
,,,,143.6,Tellurium monoxide,TeO
,,,,532.45,Oxovitisin A,C$_{25}$H$_{24}$O$_{13}$
,,,,146.34,Magnesium bicarbonate,Mg(HCO$_{3}$)$_{2}$
,,,,,Amfepentorex,C$_{15}$H$_{25}$N
-150.5,1.93,-56.1,decomposes,42.037,Ethenone,C$_{2}$H$_{2}$O
,,113,,106.12,Tropone,C$_{7}$H$_{6}$O
decomp at 155-156,,,,365.85,Allylpalladium chloride dimer,C$_{6}$H$_{10}$Cl$_{2}$Pd$_{2}$
,1.131,72-75,,89.16,Thiazolidine,C$_{3}$H$_{7}$NS
,,,,,Brivudine,C$_{11}$H$_{13}$BrN$_{2}$O$_{5}$
,,,,,Procyanidin A2,C$_{30}$H$_{24}$O$_{12}$
,,,,,Norpethidine,C$_{14}$H$_{19}$NO$_{2}$
,,,,191.78331,Sodium chloroaluminate,NaAlCl$_{4}$
,,,very slightly soluble,262.31516,Calcium sorbate,C$_{12}$H$_{14}$CaO$_{4}$
,,,357,,Methylone,C$_{11}$H$_{13}$NO$_{3}$
,,,,,Friedel's salt,"Ca$_{2}$Al(OH)$_{6}$(Cl,OH)$_{.2}$H$_{2}$O"
,,,,,Conatumumab,C$_{6466}$H$_{10006}$N$_{1730}$O$_{2024}$S$_{40}$
,,,,,DPI-221,C$_{21}$H$_{38}$FN$_{3}$O
,,,,,Betamethasone dipropionate,
172-173,,,,207.27,Methylenedioxydimethylamphetamine,C$_{12}$H$_{17}$NO$_{2}$
-46.2,,,Reacts with water,223.23,Xenon oxytetrafluoride,XeOF$_{4}$
,,,,,Difethialone,C$_{31}$H$_{23}$BrO$_{2}$S
,,,,,Tetrindole,C$_{20}$H$_{26}$N$_{2}$
66-70,,186-188,,,Pyrazole,C$_{3}$H$_{4}$N$_{2}$
180-184,,,,117.15,N-Methylmorpholine N-oxide,C$_{5}$H$_{11}$NO$_{2}$
120,3.15,,174.9,254.522,Strontium chlorate,Sr(ClO$_{3}$)$_{2}$
,,,,,Ranibizumab,C$_{2158}$H$_{3282}$N$_{562}$O$_{681}$S$_{12}$
,,,,,MS-245,C$_{19}$H$_{22}$N$_{2}$O$_{3}$S
,,,,,Magnolol,C$_{18}$H$_{18}$O$_{2}$
,,,,1270.642,YOYO-1,C$_{49}$H$_{58}$I$_{4}$N$_{6}$O$_{2}$
,,,,,Lonazolac,C$_{17}$H$_{13}$ClN$_{2}$O$_{2}$
158,,,,,Cafestol,C$_{20}$H$_{28}$O$_{3}$
,,,,660.757,Coproporphyrinogen III,C$_{36}$H$_{44}$N$_{4}$O$_{8}$
,,,,207.287,CHES (buffer),C$_{8}$H$_{17}$NO$_{3}$S
,,,reacts,,Hexafluorophosphoric acid,HPF$_{6}$
,,,,,Fluoromethylidyne,CF$^{.}$
446,4.74,1150,450,319.22,Zinc iodide,ZnI$_{2}$
113.5,2.01,,,,Heptasulfur imide,HNS$_{7}$
,,,Reacts with water,74.79,Methylmagnesium chloride,CH$_{3}$MgCl
,,,,,Kitasamycin,C$_{35}$H$_{59}$NO$_{13}$
-108,,107.89,8.7,74.122,Isobutanol,C$_{4}$H$_{10}$O
,,,,295.024,Uranium trifluoride,UF$_{3}$
,2.36,,59.9,119.98,Monosodium phosphate,NaH$_{2}$PO$_{4}$
,,,,,Buparvaquone,C$_{21}$H$_{26}$O$_{3}$
,,,,,Cefadroxil,C$_{16}$H$_{17}$N$_{3}$O$_{5}$S
,,,,,Zopiclone,C$_{17}$H$_{17}$ClN$_{6}$O$_{3}$
,,,,,Diacetolol,C$_{16}$H$_{24}$N$_{2}$O$_{4}$
,,,,,Gamma-Linolenic acid,C$_{18}$H$_{30}$O$_{2}$
,,,,924.94,Kobophenol A,C$_{56}$H$_{44}$O$_{13}$
1100,6.47,,insoluble,127.94,Molybdenum(IV) oxide,MoO$_{2}$
,,,,,Arsthinol,C$_{11}$H$_{14}$AsNO$_{3}$S$_{2}$
,,,,,Fludarabine,C$_{10}$H$_{13}$FN$_{5}$O$_{7}$P
,,229-230,,198.3,Menthyl acetate,C$_{12}$H$_{22}$O$_{2}$
,,,,,Guanochlor,C$_{9}$H$_{12}$Cl$_{2}$N$_{4}$O
,,,,,Interferon $\beta$ 1b,C$_{908}$H$_{1408}$N$_{246}$O$_{253}$S$_{6}$
,,,,,Norcocaine,C$_{16}$H$_{19}$NO$_{4}$
87-87.5,,,,,N-Methylephedrine,C$_{11}$H$_{17}$NO
677,,1800,,412.77,Ytterbium(III) bromide,YbBr$_{3}$
-30.8,,156,0.041,,Bromobenzene,C$_{6}$H$_{5}$Br
205,2.15,,"moderate, with slow hydrolysis",97.1,Sulfamic acid,H$_{3}$NSO$_{3}$
1843,4.23,2972,insoluble,79.866,Titanium dioxide,TiO$_{2}$
,,106,,,Cyclononene,C$_{9}$H$_{16}$
-70,,145,,,Furfurylamine,C$_{5}$H$_{7}$NO
,,,,,CTN-986,C$_{32}$H$_{38}$O$_{20}$
,,,,406.08,Dicobalt edetate,C$_{10}$H$_{12}$Co$_{2}$N$_{2}$O$_{8}$.6H$_{2}$O
,,,,313.42,Sematilide,C$_{14}$H$_{23}$N$_{3}$O$_{3}$S
132,,,,,Bitoscanate,C$_{8}$H$_{4}$N$_{2}$S$_{2}$
109-111,,286,2.14,188.22,Azelaic acid,C$_{9}$H$_{16}$O$_{4}$
-44.5,1.123,119,10,,Chloroacetone,C$_{3}$H$_{5}$ClO
,,,,349.38,Tazopsine,C$_{18}$H$_{23}$NO$_{6}$
,,,,,Apigetrin,C$_{21}$H$_{20}$O$_{10}$
,,,,,TFMFly,C$_{14}$H$_{16}$F$_{3}$NO$_{2}$
>300,,,,221.32,CAPS (buffer),C$_{9}$H$_{19}$NO$_{3}$S
,,64.5,reacts,187.818,Carbonyl bromide,COBr$_{2}$
,,,,,Tiemonium iodide,
,,,,,Palau'amine,C$_{17}$H$_{22}$N$_{9}$O$_{2}$Cl
,,397.4,,310.38534,Botrydial,C$_{17}$H$_{26}$O$_{5}$
,,,,,Prussian blue,C$_{18}$Fe$_{7}$N$_{18}$
,,,,,Talimogene laherparepvec,
1300-1500,7.15,,insoluble,66.66,Iron boride,FeB
710,,850,52,151.001,Manganese(II) sulfate,MnSO$_{4}$
,,,,,JWH-030,C$_{20}$H$_{21}$NO
,,,,,Trilostane,C$_{20}$H$_{27}$NO$_{3}$
,,,,,BIIE-0246,C$_{49}$H$_{57}$N$_{11}$O$_{6}$
,,,,,Aminophylline,C$_{16}$H$_{24}$N$_{10}$O$_{4}$
,,,,306.69,Fisetinidin,C$_{15}$H$_{11}$O$_{5}$+(Cl$^{-}$)
-165.2,0.64,30,,,Pentene,C$_{5}$H$_{10}$
85,,,,,Norbornane,C$_{7}$H$_{12}$
580,,,0.189,74.093,Calcium hydroxide,Ca(OH)$_{2}$
,,,,,Cefditoren,C$_{19}$H$_{18}$N$_{6}$O$_{5}$S$_{3}$
,,,,,MDAT,C$_{11}$H$_{13}$NO$_{2}$
,,,,,Warfarin,C$_{19}$H$_{16}$O$_{4}$
,,,,327.374,Stepholidine,C$_{19}$H$_{21}$NO$_{4}$
,,,,,Alovudine,C$_{10}$H$_{13}$F$_{2}$N$_{2}$O$_{4}$
,,,,906.92,Vitisin B (stilbenoid),C$_{56}$H$_{42}$O$_{12}$
,,,,,Carbetocin,C$_{45}$H$_{69}$N$_{11}$O$_{12}$S
,,,,312.37,Propamidine,C$_{17}$H$_{20}$N$_{4}$O$_{2}$
,,,,,Mezlocillin,C$_{21}$H$_{25}$N$_{5}$O$_{8}$S$_{2}$
,,,,,Basiliximab,C$_{6378}$H$_{9844}$N$_{1698}$O$_{1997}$S$_{48}$
,,,,,Methocarbamol,C$_{11}$H$_{15}$NO$_{5}$
,,,,,Semustine,C$_{10}$H$_{18}$ClN$_{3}$O$_{2}$
120-125,,,,,Dimethylsulfoniopropionate,C$_{5}$H$_{10}$O$_{2}$S
< 25,,123-125,,,Ethoxyquin,C$_{14}$H$_{19}$NO
,,,,,Colchicine,C$_{22}$H$_{25}$NO$_{6}$
1702,2.13,1880,insoluble,44.08,Silicon monoxide,SiO
,,,,60.15,Silicon monosulfide,SiS
,,,,,TC-2216,C$_{12}$H$_{17}$N$_{3}$
-66,,,,,Chloramine,NH$_{2}$Cl
-48,,256,none,,Dioctyl sebacate,(CH$_{2}$)$_{8}$(COOC$_{8}$H$_{17}$)$_{2}$
,,,,,Oxatomide,C$_{27}$H$_{30}$N$_{4}$O
,,,,,Ethylestrenol,C$_{20}$H$_{32}$O
327,,,,,Polytetrafluoroethylene (data page),C$_{n}$F$_{2n}$
2080,,,Insoluble in mineral acids at 25 $^{\circ}$C. Soluble in H$_{3}$PO$_{3}$ > 150,213.89,Lanthanum aluminate,LaAlO$_{3}$
1027,3.23,1506,soluble,121.847,Vanadium(II) chloride,VCl$_{2}$
,,,,436.52,Lysophosphatidic acid,C$_{21}$H$_{41}$O$_{7}$P
240,2.703,,63.8,158.034,Potassium permanganate,KMnO$_{4}$
200,4,290,insoluble,221.116,Basic copper carbonate,Cu$_{2}$(OH)$_{2}$CO$_{3}$
136,,,,242.227,Diphenyl oxalate,C$_{14}$H$_{10}$O$_{4}$
-65.73,3.553,-41.25,0.7,80.98,Hydrogen selenide,H$_{2}$Se
,1.7,Decomposes at 160,,188.15,Tetrazene explosive,C$_{2}$H$_{6}$N$_{10}$.H$_{2}$O
149-150,,,,490.76,Cholesteryl benzoate,C$_{34}$H$_{50}$O$_{2}$
,,,,,Pagodane,C$_{20}$H$_{20}$
,,,,152.19,Isopropyl methoxy pyrazine,C$_{8}$H$_{12}$N$_{2}$O
,,,,,Asocainol,C$_{9}$H$_{13}$NO$_{2}$
170,,,0.14,,Silver thiocyanate,AgSCN
,,,,,Fluticasone furoate,
,,,,,Oxyfedrine,C$_{19}$H$_{23}$NO$_{3}$
,,,,,A-423 579,C$_{22}$N$_{3}$H$_{25}$OF$_{2}$
,,,,282.3,ICRF 193,C$_{12}$H$_{18}$N$_{4}$O$_{4}$
,,,,,Fludorex,C$_{11}$H$_{14}$F$_{3}$NO
,,,,,Gadobenic acid,
-76,,122-124,1,,Propyl propanoate,C$_{6}$H$_{12}$O$_{2}$
,,,,,Piritramide,C$_{27}$H$_{34}$N$_{4}$O
561,2.504,,anhydrous:   1212,164.088,Calcium nitrate,Ca(NO$_{3}$)$_{2}$
,,,,,Phenaridine,C$_{24}$H$_{32}$N$_{2}$O
,,,,,Semuloparin sodium,C$_{25}$H$_{33}$N$_{6}$O$_{9}$P
,,,,,Taxinine M,C$_{35}$H$_{42}$O$_{14}$
,,,,,Pheniprazine,C$_{9}$H$_{14}$N$_{2}$
,,,,,Cresyl violet,C$_{19}$H$_{18}$ClN$_{3}$O
104,,,slightly soluble (0.003%),,Aldrin,C$_{12}$H$_{8}$Cl$_{6}$
70,1.53,180,0.0047,,Leptophos,C$_{13}$H$_{10}$BrCl$_{5}$O$_{2}$PS
,,,,158.96951,Methylammonium halide,CH$_{3}$NH$_{3}$I
359.5,,,,,Fluorescein isothiocyanate,C$_{21}$H$_{11}$NO$_{5}$S
,,,,,Josamycin,C$_{42}$H$_{69}$NO$_{15}$
360,3.6,132,109.7,,Cadmium nitrate,CdN$_{2}$O$_{6}$
,,,,,Ketobemidone,C$_{15}$H$_{21}$NO$_{2}$
,,,,,Ciproxifan,C$_{16}$H$_{18}$N$_{2}$O$_{2}$
,,,,,Azure A,C$_{14}$H$_{14}$ClN$_{3}$S
,,,,300.304,Salidroside,C$_{14}$H$_{20}$O$_{7}$
,,,,,Vitamin B12,
69,,293,6.4mg/L (25 $^{\circ}$C),,Azobenzene,C$_{12}$H$_{10}$N$_{2}$
,,,,,Liraglutide,C$_{172}$H$_{265}$N$_{43}$O$_{5}$
,,,,,Clopidogrel,C$_{16}$H$_{16}$ClNO$_{2}$S
,,,,,Propylnorapomorphine,C$_{19}$H$_{21}$NO$_{2}$
,,,,,Garenoxacin,C$_{23}$H$_{20}$F$_{2}$N$_{2}$O$_{4}$
,,,,,Azapride,C$_{20}$H$_{22}$ClN$_{5}$O$_{2}$
,2.65,,,,Cyclooctadiene iridium chloride dimer,C$_{16}$H$_{24}$Cl$_{2}$Ir$_{2}$
42.35,,158,392.2,,Phosphoric acid,H$_{3}$PO$_{4}$
,,,,291.4,Butinoline,C$_{20}$H$_{21}$NO
,,,,,Cimaterol,C$_{12}$H$_{17}$N$_{3}$O
102-105,,192-193,,144.127,Dimethyl fumarate,C$_{6}$H$_{8}$O$_{4}$
,,,,,Levosalbutamol,C$_{13}$H$_{21}$NO$_{3}$
,,,,,Amezinium metilsulfate,
,,,,,Milrinone,C$_{12}$H$_{9}$N$_{3}$O
,,,,209.242,MDMEO,C$_{11}$H$_{15}$NO$_{3}$
,,,,509.63,Veracevine,C$_{27}$H$_{43}$NO$_{8}$
,,,decomposes,,Calcium monophosphide,CaP(Ca$_{2}$P$_{2}$)
110,,,Soluble,453.78,Sodium hexachloroplatinate,Na$_{2}$PtCl$_{6}$
,,,,,Delta-Carotene,C$_{40}$H$_{56}$
91,,97-160,insoluble,148.157,Acetone peroxide,C$_{6}$H$_{12}$O$_{4}$(dimer)
136-140,,,,,Beta-Sitosterol,C$_{29}$H$_{50}$O
,,,,,Viridin,C$_{20}$H$_{16}$O$_{6}$
,,,,,Pranlukast,C$_{27}$H$_{23}$N$_{5}$O$_{4}$